LAMMPS data file via write_data, version 3 Mar 2020, timestep = 100

13824 atoms
2 atom types

-1.1646783917200001e+01 1.1646783917200001e+01 xlo xhi
-1.1646783917200001e+01 1.1646783917200001e+01 ylo yhi
-1.1646783917200001e+01 1.1646783917200001e+01 zlo zhi

Masses

1 1
2 1

Atoms # full

8 8 1 0.0000000000000000e+00 -2.9799678795650708e+00 -5.3783000806419565e+00 -7.0041524054271704e+00 0 0 0
7158 7158 2 0.0000000000000000e+00 -6.2903183725211012e+00 -3.0374123661650509e+00 -1.1612369186041896e+01 0 0 0
4896 4896 1 0.0000000000000000e+00 -2.9075305559247080e+00 -7.1818099981286654e+00 -1.1307389834171939e+01 0 0 0
44 44 1 0.0000000000000000e+00 -3.1137640775132378e+00 -3.4062650510299348e+00 -1.0159376764863842e+01 0 0 0
12458 12458 2 0.0000000000000000e+00 -2.8659944288097250e-01 -9.0990912919465110e+00 -7.8917553230579642e+00 0 0 0
5272 5272 1 0.0000000000000000e+00 -7.4397376187068289e+00 -4.8239245380297252e-01 -8.2616881283977577e+00 0 0 0
5822 5822 1 0.0000000000000000e+00 -9.4489386071576966e+00 -7.5366902272285008e-01 -6.6504999654915284e+00 0 0 0
134 134 1 0.0000000000000000e+00 -7.5529739275397150e+00 -4.1074862546222528e+00 -1.0845317416361253e+01 0 0 0
135 135 1 0.0000000000000000e+00 -7.4149909028364016e+00 -7.4266961679004018e+00 -9.1902401919768959e+00 0 0 0
137 137 1 0.0000000000000000e+00 -7.5391401136416709e+00 -2.1498651414304639e+00 -8.8820470765461526e+00 0 0 0
5116 5116 1 0.0000000000000000e+00 -1.1295886331958803e+01 -6.8107331247337930e+00 -8.5917580641068358e+00 1 0 0
140 140 1 0.0000000000000000e+00 -6.7275367602203913e+00 -9.8137460270434147e+00 -1.0669794311089499e+01 0 0 0
142 142 1 0.0000000000000000e+00 -6.2974368772311244e+00 -8.8340860736366569e+00 -9.1594573649922815e+00 0 0 0
146 146 1 0.0000000000000000e+00 -8.4328524712383661e+00 -7.1168989849766175e+00 -9.1520033498788624e+00 0 0 0
154 154 1 0.0000000000000000e+00 -3.2035864286254134e+00 -3.3206608381200109e+00 -9.0221264570233313e+00 0 0 0
155 155 1 0.0000000000000000e+00 -8.7543497522217368e+00 -1.0983340682079451e+01 -1.0067076509137442e+01 0 0 0
12660 12660 2 0.0000000000000000e+00 -1.0411450345542937e+01 -1.1247666770354787e+01 -6.7332556487884316e+00 0 0 0
187 187 1 0.0000000000000000e+00 -5.2825013281653996e+00 -5.5423977988034130e+00 -8.1289012062924488e+00 0 0 0
192 192 1 0.0000000000000000e+00 -9.4133736361055185e+00 -3.7276223490452596e+00 -8.6179410360920876e+00 0 0 0
195 195 1 0.0000000000000000e+00 -1.1014637794506794e+00 -7.0822111841439321e+00 -9.3476823826373820e+00 0 0 0
204 204 1 0.0000000000000000e+00 -2.2226840826472878e+00 -1.0840305579866852e+01 -1.0420865278145103e+01 0 0 0
205 205 1 0.0000000000000000e+00 -5.9603502441556486e+00 -2.9950412057367335e+00 -9.8118795097694882e+00 0 0 0
208 208 1 0.0000000000000000e+00 -1.0220981537255653e+01 -3.8881317339012473e+00 -9.2481191770892774e+00 0 0 0
8457 8457 2 0.0000000000000000e+00 -3.5588120674405612e+00 -1.1119581567184527e+01 -7.2683891541879371e+00 0 0 0
232 232 1 0.0000000000000000e+00 -7.3736112493076487e+00 -5.1405228756143764e+00 -6.1581744057441350e+00 0 0 0
233 233 1 0.0000000000000000e+00 -1.1169977050204842e+01 -8.2305531761749631e+00 -9.8672471696325044e+00 0 0 0
7050 7050 2 0.0000000000000000e+00 -1.0352517789656222e+01 -5.5150332560283770e+00 -7.6004873516049223e+00 1 0 0
10994 10994 2 0.0000000000000000e+00 -9.5910365994145708e-01 -1.9432817036733230e-01 -1.1540362344501206e+01 0 0 0
278 278 1 0.0000000000000000e+00 -4.9529930861416869e+00 -9.7372172830187083e+00 -1.0631589064153017e+01 0 0 0
289 289 1 0.0000000000000000e+00 -3.9838452717094288e+00 -3.2185561764229607e+00 -9.5692486534688115e+00 0 0 0
300 300 1 0.0000000000000000e+00 -1.8968461713493681e+00 -3.9049437202495016e+00 -6.3070874903089740e+00 0 0 0
5368 5368 1 0.0000000000000000e+00 -2.2915935830113412e+00 -1.0016624924031529e+01 -9.8434870688825828e+00 0 1 0
350 350 1 0.0000000000000000e+00 -8.8427012324217920e+00 -7.4162390775544411e+00 -1.0648223462528971e+01 0 0 0
369 369 1 0.0000000000000000e+00 -1.1035565104268652e+01 -1.5363276950797133e+00 -9.3530041186173243e+00 0 0 0
2539 2539 1 0.0000000000000000e+00 -9.6450125608288690e+00 -4.4139498749366979e+00 -1.1638144053178317e+01 0 0 0
382 382 1 0.0000000000000000e+00 -1.0651843756451251e+01 -6.9242829728180908e+00 -7.9694660974485920e+00 0 0 0
11705 11705 2 0.0000000000000000e+00 -8.3976511947578398e+00 -5.1729233724394312e+00 -1.0855947458282655e+01 0 0 0
408 408 1 0.0000000000000000e+00 -7.6841729310623785e-01 -9.1265180389073350e+00 -9.6451356064266367e+00 0 0 0
409 409 1 0.0000000000000000e+00 -7.3803469469319438e+00 -1.0481036566391857e+01 -8.0233383781583925e+00 0 0 0
4472 4472 1 0.0000000000000000e+00 -5.6593449132011724e+00 -1.0646362197976023e+01 -1.0592835398803647e+01 0 1 0
6221 6221 1 0.0000000000000000e+00 -1.0528191832389066e+01 -1.0587689942384375e+00 -8.3608039774917788e+00 0 0 0
510 510 1 0.0000000000000000e+00 -5.5712933038069892e+00 -4.6323695361143571e+00 -7.3473919037307649e+00 0 0 0
511 511 1 0.0000000000000000e+00 -7.9165711890206492e+00 -3.0642050883984373e+00 -8.9035426213136617e+00 0 0 0
5064 5064 1 0.0000000000000000e+00 -1.0928735863082037e+01 -9.7189126485343493e+00 -8.9910134257780712e+00 0 1 0
12666 12666 2 0.0000000000000000e+00 -2.3047085799225453e-01 -4.0887318514279523e+00 -1.0840186385126371e+01 0 0 0
11785 11785 2 0.0000000000000000e+00 -1.0167553709977414e+01 -1.0498951215707546e+01 -9.0828414313014036e+00 0 0 1
630 630 1 0.0000000000000000e+00 -5.9246306298193776e+00 -1.9378276951595013e+00 -8.8928563808546404e+00 0 0 0
650 650 1 0.0000000000000000e+00 -7.3552369103186956e+00 -7.3197781714819445e+00 -8.1875250840896285e+00 0 0 0
7745 7745 2 0.0000000000000000e+00 -3.0659895495461904e+00 -1.0456871008579864e+01 -6.7278309500603743e+00 0 0 0
816 816 1 0.0000000000000000e+00 -1.4324022021280192e+00 -7.6482078446670645e+00 -1.0922218373537085e+01 0 0 0
714 714 1 0.0000000000000000e+00 -6.8429419234362161e+00 -9.6799978925777719e+00 -7.8190557316313916e+00 0 0 0
8174 8174 2 0.0000000000000000e+00 -1.3487341926887739e-01 -9.0132872095676113e+00 -6.7776228360215764e+00 0 0 0
720 720 1 0.0000000000000000e+00 -7.9903397527126581e+00 -9.0521679401058179e+00 -9.6117046601749561e+00 0 0 0
732 732 1 0.0000000000000000e+00 -2.2444694404857430e+00 -6.4139243368466738e+00 -7.3082730402951634e+00 0 0 0
777 777 1 0.0000000000000000e+00 -4.8391648411414918e+00 -9.8531920164083697e+00 -9.0096051449571597e+00 0 0 0
1753 1753 1 0.0000000000000000e+00 -1.0810591965494805e+01 -3.0549276397329139e+00 -1.1491081896585628e+01 0 0 0
9606 9606 2 0.0000000000000000e+00 -9.2811841408144442e+00 -1.0448411180995704e+01 -1.1454101860164153e+01 0 0 0
5772 5772 1 0.0000000000000000e+00 -1.0915734082421061e+01 -2.5667836522514742e+00 -6.7308973910390764e+00 1 0 0
696 696 1 0.0000000000000000e+00 -1.1635841589806470e+01 -3.4752499233949505e+00 -8.8187441390882011e+00 1 0 0
3132 3132 1 0.0000000000000000e+00 -1.1549599872767715e+01 -1.0274022751830608e-01 -6.8750030274710179e+00 1 0 0
887 887 1 0.0000000000000000e+00 -2.3859397038744961e+00 -1.0343933460044617e+01 -7.4674610377437034e+00 0 0 0
6896 6896 1 0.0000000000000000e+00 -3.8696478356939973e-01 -1.1850682655238389e-02 -6.7046573323000676e+00 0 0 0
932 932 1 0.0000000000000000e+00 -7.5525282139058199e+00 -1.7690000991558794e-01 -8.9408808574849630e+00 0 0 0
941 941 1 0.0000000000000000e+00 -5.1075282620587503e-01 -1.8063432162258288e+00 -8.6054828684787843e+00 0 0 0
4119 4119 1 0.0000000000000000e+00 -3.2230511091208833e+00 -3.5259758886892456e-01 -7.2242622833842551e+00 0 0 0
996 996 1 0.0000000000000000e+00 -1.0420562388032046e+01 -2.3642361410713555e+00 -1.0420747408830396e+01 0 0 0
1005 1005 1 0.0000000000000000e+00 -6.1382058492346765e+00 -7.3759810849141285e+00 -7.8830887605058084e+00 0 0 0
6271 6271 1 0.0000000000000000e+00 -9.2379730133865454e+00 -1.9213241595833748e+00 -1.0924690712215225e+01 0 0 0
1061 1061 1 0.0000000000000000e+00 -1.1165465858866390e+00 -8.8304420314167835e+00 -8.7616632023536329e+00 0 0 0
1066 1066 1 0.0000000000000000e+00 -1.1425697532330062e+01 -8.9050408350899719e+00 -7.9899027102779714e+00 0 0 0
5745 5745 1 0.0000000000000000e+00 -9.8195882592718586e+00 -1.0194089780213291e+00 -7.5795718326046364e+00 0 0 0
1082 1082 1 0.0000000000000000e+00 -6.6931513878231179e+00 -7.7203046144147471e+00 -8.6673044589236721e+00 0 0 0
9631 9631 2 0.0000000000000000e+00 -1.0782055360753908e+01 -2.8715109551021301e-01 -1.1178162746126894e+01 1 0 0
1127 1127 1 0.0000000000000000e+00 -6.4804591529273692e+00 -7.1409917687028246e-01 -6.9086781076187140e+00 0 0 0
2272 2272 1 0.0000000000000000e+00 -4.8423561509805504e+00 -8.3951671431823982e+00 -9.6975418245085319e+00 0 0 0
1136 1136 1 0.0000000000000000e+00 -1.0617930736109722e+01 -8.8752235037563239e+00 -1.0138038949341887e+01 0 0 0
1204 1204 1 0.0000000000000000e+00 -1.4961337665248307e+00 -8.4245903322048576e+00 -1.1378457665226476e+01 0 0 0
7973 7973 2 0.0000000000000000e+00 -8.5989430021968811e+00 -3.7033175743831355e+00 -1.0950873790950036e+01 0 0 1
12456 12456 2 0.0000000000000000e+00 -7.7248031116518154e+00 -1.0502927727664192e+01 -8.9430726884448397e+00 0 1 0
11453 11453 2 0.0000000000000000e+00 -8.5525835335914824e+00 -3.1046670712573615e-01 -1.0412095867463803e+01 0 0 0
1258 1258 1 0.0000000000000000e+00 -9.3808556616611547e+00 -7.1844807367483776e+00 -9.6202403413117494e+00 0 0 0
1271 1271 1 0.0000000000000000e+00 -4.2217359885531272e+00 -9.5654861549783963e+00 -7.9929964424361932e+00 0 0 0
13769 13769 2 0.0000000000000000e+00 -3.3731713275562307e+00 -2.4377555404851905e+00 -9.5497933717791916e+00 0 0 0
1253 1253 1 0.0000000000000000e+00 -1.0611428881431273e+01 -9.5433093981883435e+00 -8.0563268850465359e+00 0 0 0
6762 6762 1 0.0000000000000000e+00 -9.6092356299026473e+00 -1.1549788225322144e+01 -9.9560877347840560e+00 0 1 0
1325 1325 1 0.0000000000000000e+00 -9.9314427111478079e+00 -1.8929046873438395e+00 -8.4936459519176690e+00 0 0 0
1336 1336 1 0.0000000000000000e+00 -5.2488119394925530e+00 -6.0530994218373273e+00 -9.9060391887363153e+00 0 0 0
3214 3214 1 0.0000000000000000e+00 -7.8272594267998308e+00 -2.8622661151597710e+00 -1.1086329699482803e+01 0 0 0
6644 6644 1 0.0000000000000000e+00 -9.4085617280481870e-01 -1.0780915206657131e+00 -1.0410541741959049e+01 0 0 0
1459 1459 1 0.0000000000000000e+00 -1.9181308805659274e+00 -8.2932914650907907e+00 -8.3364933199178566e+00 0 0 0
12161 12161 2 0.0000000000000000e+00 -6.4101852487633781e+00 -2.1474012959115879e-01 -1.1563438939215819e+01 0 0 0
1507 1507 1 0.0000000000000000e+00 -3.0093015135903558e+00 -6.3004151249993168e+00 -9.1412113503296428e+00 0 0 0
1517 1517 1 0.0000000000000000e+00 -5.1525050262993206e+00 -7.6305752147821249e+00 -7.8592337715043454e+00 0 0 0
1551 1551 1 0.0000000000000000e+00 -1.3030895823217474e+00 -3.4167637287501136e+00 -9.5889620152893951e+00 0 0 0
216 216 1 0.0000000000000000e+00 -2.1308684991345577e+00 -9.5179142772193757e+00 -1.1547561886686939e+01 0 0 1
2706 2706 1 0.0000000000000000e+00 -2.8346832203762036e+00 -1.1613147237401007e+01 -1.0008918450613187e+01 0 1 0
1574 1574 1 0.0000000000000000e+00 -1.0037932677843697e+01 -7.5944353111528340e+00 -8.0032467194368397e+00 0 0 0
8160 8160 2 0.0000000000000000e+00 -1.2005938287550437e+00 -4.1626135320954969e+00 -1.0358613216733776e+01 0 0 0
1495 1495 1 0.0000000000000000e+00 -4.3860678032213478e+00 -1.4612455708786021e+00 -1.0828168629328330e+01 0 0 1
6242 6242 1 0.0000000000000000e+00 -5.6296456009230971e+00 -1.7046100316580826e-01 -7.1787263095978497e+00 0 0 0
5661 5661 1 0.0000000000000000e+00 -1.0873852193456306e+01 -9.5083076191659952e+00 -1.0746224132366072e+01 1 0 0
1664 1664 1 0.0000000000000000e+00 -1.0353770934157073e+01 -3.9792356381920539e+00 -6.9474093522223885e+00 0 0 0
1673 1673 1 0.0000000000000000e+00 -4.6050734182245883e+00 -2.5527732540519814e+00 -1.1282175333965332e+01 0 0 0
1675 1675 1 0.0000000000000000e+00 -6.4645469293329105e+00 -1.0726165901198256e+01 -1.0162678889286138e+01 0 0 0
7673 7673 2 0.0000000000000000e+00 -5.4002263729509501e+00 -5.4008756613393349e-01 -1.1149327739550323e+01 0 0 0
1714 1714 1 0.0000000000000000e+00 -1.0329925577995681e+01 -2.0279479930219142e+00 -9.4187961359247403e+00 0 0 0
9235 9235 2 0.0000000000000000e+00 -5.5553161478833397e+00 -5.6041875985285738e-01 -9.5128256279081764e+00 0 0 0
1725 1725 1 0.0000000000000000e+00 -2.3607095856043689e+00 -1.1335577870837581e+00 -9.2531597240886683e+00 0 0 0
1741 1741 1 0.0000000000000000e+00 -6.0604489086292457e+00 -5.4835392266499055e+00 -1.0687650619801243e+01 0 0 0
10829 10829 2 0.0000000000000000e+00 -9.9517038136113847e+00 -2.3443807839457881e-01 -1.1345394384024319e+01 1 0 0
1767 1767 1 0.0000000000000000e+00 -2.5098374181506315e+00 -6.9971905388989324e+00 -6.5688558266416539e+00 0 0 0
1811 1811 1 0.0000000000000000e+00 -7.9709785909543394e+00 -4.5405235155158588e+00 -6.7191032646066855e+00 0 0 0
1820 1820 1 0.0000000000000000e+00 -9.9027116316375396e-01 -7.4775051253289426e+00 -8.5021417328284308e+00 0 0 0
1830 1830 1 0.0000000000000000e+00 -5.7479798484507407e+00 -6.9087781164058759e+00 -8.6214209525582284e+00 0 0 0
1865 1865 1 0.0000000000000000e+00 -4.3628575968925629e+00 -7.3304929467603435e+00 -7.5792182935318886e+00 0 0 0
1917 1917 1 0.0000000000000000e+00 -6.8602625511768265e+00 -5.3984932514729254e+00 -9.0989024199685495e+00 0 0 0
2848 2848 1 0.0000000000000000e+00 -1.0775291552704369e+00 -1.1059986324326443e+01 -6.2758968723429174e+00 0 0 0
5781 5781 1 0.0000000000000000e+00 -4.5003578978911758e+00 -9.3943399092867654e+00 -1.1581401201936366e+01 0 0 1
1966 1966 1 0.0000000000000000e+00 -5.6082311516603438e+00 -1.0411959415569708e+01 -8.5154859836949957e+00 0 0 0
1637 1637 1 0.0000000000000000e+00 -1.9784338949913580e+00 -1.8481220268695837e+00 -7.2120083563157502e+00 0 0 0
8718 8718 2 0.0000000000000000e+00 -6.0485569631959777e+00 -2.0078750615028174e+00 -1.1451852993331022e+01 0 0 1
8664 8664 2 0.0000000000000000e+00 -2.9045064290977036e+00 -2.5752602516199918e-01 -6.1294050241244271e+00 0 0 0
10211 10211 2 0.0000000000000000e+00 -6.3453348573573631e+00 -1.0450725319399236e+01 -7.3010308852891619e+00 0 1 0
2047 2047 1 0.0000000000000000e+00 -7.0067092459678326e+00 -8.2285553014887913e+00 -9.7467040397426103e+00 0 0 0
7463 7463 2 0.0000000000000000e+00 -7.2418396093525921e+00 -3.6057770163556495e+00 -6.5341353841169063e+00 0 0 0
4321 4321 1 0.0000000000000000e+00 -8.8053146582746482e+00 -9.3290503157627231e+00 -1.0893733686326257e+01 0 0 1
13071 13071 2 0.0000000000000000e+00 -5.6458042727933255e-01 -5.9157477674286429e+00 -9.6656118643813773e+00 0 0 0
2100 2100 1 0.0000000000000000e+00 -5.9692567832133836e+00 -5.9102292089994659e+00 -8.8896731875524502e+00 0 0 0
2125 2125 1 0.0000000000000000e+00 -8.9931698488840190e+00 -6.1989169582387147e+00 -6.3767211646542821e+00 0 0 0
12070 12070 2 0.0000000000000000e+00 -8.2006472064229037e+00 -5.5465980237847310e+00 -6.8037632218124147e+00 0 0 0
2166 2166 1 0.0000000000000000e+00 -2.5536838318148352e+00 -1.6627000866904558e+00 -7.8487335822138471e+00 0 0 0
2168 2168 1 0.0000000000000000e+00 -8.5393939144444904e+00 -7.8782545330955873e+00 -8.5581061062464023e+00 0 0 0
2183 2183 1 0.0000000000000000e+00 -9.2572940963585122e+00 -3.9303269842134188e+00 -9.8394555575419052e+00 0 0 0
2198 2198 1 0.0000000000000000e+00 -8.3295107844793108e+00 -5.4461008325257767e+00 -8.2387791525529082e+00 0 0 0
2225 2225 1 0.0000000000000000e+00 -4.6664285390337301e-01 -3.0861823173698988e+00 -9.9420493860120036e+00 0 0 0
2239 2239 1 0.0000000000000000e+00 -9.2145794763128439e+00 -9.3150990644349747e+00 -9.9221751403552876e+00 0 0 0
2249 2249 1 0.0000000000000000e+00 -4.0143115188105272e+00 -1.0061578123819139e+00 -9.3710169940787740e+00 0 0 0
9305 9305 2 0.0000000000000000e+00 -9.6178617945534643e+00 -1.1060518044851850e+01 -7.3349830918001073e+00 0 1 0
11911 11911 2 0.0000000000000000e+00 -6.5589303112893771e-01 -1.1179070600055748e+01 -7.2859648354549673e+00 0 0 0
5002 5002 1 0.0000000000000000e+00 -1.6994320268223564e+00 -4.3850762871048171e-01 -9.7917146264122721e+00 0 0 0
2384 2384 1 0.0000000000000000e+00 -8.5044568002063734e+00 -8.8673527554355474e+00 -8.3810343018656006e+00 0 0 0
2419 2419 1 0.0000000000000000e+00 -1.0136624950640465e+01 -4.4353670330428150e+00 -7.6203217281976183e+00 0 0 0
2467 2467 1 0.0000000000000000e+00 -6.1653944455857932e+00 -5.1988540423445952e+00 -8.1012736961656469e+00 0 0 0
885 885 1 0.0000000000000000e+00 -3.7016432301466091e+00 -1.1048749820528029e+01 -1.1513076941509393e+01 0 0 1
11455 11455 2 0.0000000000000000e+00 -8.8346053391326826e+00 -8.5337283874290193e-01 -1.1118012170620707e+01 0 0 0
9064 9064 2 0.0000000000000000e+00 -1.1050905844054263e+01 -4.7203143577873634e+00 -7.6211888245914921e+00 1 0 0
2537 2537 1 0.0000000000000000e+00 -4.1448222566737201e+00 -7.4781448911499631e+00 -1.0979712270761176e+01 0 0 0
11079 11079 2 0.0000000000000000e+00 -1.5774326265768196e-01 -1.4322669423508391e-02 -1.1351686099110655e+01 0 0 1
7618 7618 2 0.0000000000000000e+00 -1.1113727933493447e+01 -4.0903592048321036e+00 -8.1064348638896480e+00 1 0 0
3340 3340 1 0.0000000000000000e+00 -1.0588631695227978e+01 -6.4314846785571067e+00 -9.9736775475338462e+00 0 0 0
2574 2574 1 0.0000000000000000e+00 -4.6002558000827083e+00 -9.5378589897326247e+00 -9.8086353749574524e+00 0 0 0
2602 2602 1 0.0000000000000000e+00 -3.4510336756138984e+00 -4.6656092872570598e+00 -6.9956636076779093e+00 0 0 0
10214 10214 2 0.0000000000000000e+00 -4.4413555494521404e+00 -1.0481130040765843e+01 -8.0239920849366282e+00 0 1 0
5764 5764 1 0.0000000000000000e+00 -6.1093393270908827e+00 -7.3660305579891228e+00 -1.1266943831302672e+01 0 0 0
2625 2625 1 0.0000000000000000e+00 -7.3197165467252541e+00 -9.9625462009699750e-01 -7.5780546460791092e+00 0 0 0
9682 9682 2 0.0000000000000000e+00 -5.3900772960940380e+00 -6.9295071658552372e+00 -9.5580681591860515e+00 0 0 1
2644 2644 1 0.0000000000000000e+00 -5.4560538951134072e+00 -5.7682798813865732e+00 -1.0778644345518352e+01 0 0 0
7544 7544 2 0.0000000000000000e+00 -7.4581629715858533e+00 -1.9653460565364786e+00 -1.1402442974594006e+01 0 0 1
2814 2814 1 0.0000000000000000e+00 -1.1030817289092978e+01 -5.9488068142939206e+00 -1.0555803425118047e+01 1 0 0
2689 2689 1 0.0000000000000000e+00 -7.7884445673287015e+00 -7.5805862633436485e+00 -7.0157300892645660e+00 0 0 0
8403 8403 2 0.0000000000000000e+00 -1.1480567319500482e+01 -7.7176288431318074e+00 -1.1484540297355920e+01 0 0 1
8387 8387 2 0.0000000000000000e+00 -8.9464418905395071e+00 -1.1485571158032020e+01 -7.9801524095380714e+00 0 0 0
2750 2750 1 0.0000000000000000e+00 -4.6112889544708437e+00 -4.7969547838448738e+00 -6.7513231641029261e+00 0 0 0
2783 2783 1 0.0000000000000000e+00 -3.4250383016996619e+00 -4.9322549346741971e+00 -9.2660507762514541e+00 0 0 0
2818 2818 1 0.0000000000000000e+00 -1.4771549668430826e+00 -6.2981252621340085e+00 -1.0226752811399983e+01 0 0 0
1453 1453 1 0.0000000000000000e+00 -8.9293741838439065e+00 -4.3901597725820840e-01 -7.8399504615711137e+00 0 0 0
11340 11340 2 0.0000000000000000e+00 -1.5076927959042183e-02 -2.4823020443331706e-02 -1.0163742001048350e+01 0 0 0
2852 2852 1 0.0000000000000000e+00 -4.3506366073226479e+00 -5.2066368038522466e+00 -8.4757884699523647e+00 0 0 0
2878 2878 1 0.0000000000000000e+00 -4.0316756358096670e+00 -2.8059298218942201e+00 -8.5188585899419298e+00 0 0 0
11948 11948 2 0.0000000000000000e+00 -3.3075312858380643e+00 -9.0997659122031269e+00 -1.1007418618847067e+01 0 0 0
2893 2893 1 0.0000000000000000e+00 -2.5286534325218666e+00 -5.3574271545906820e+00 -7.7179071995955191e+00 0 0 0
2916 2916 1 0.0000000000000000e+00 -4.8903389251889484e+00 -1.1016973702839037e+01 -9.9335110667275170e+00 0 0 0
2945 2945 1 0.0000000000000000e+00 -9.2872630805152383e+00 -4.5791314240937906e+00 -8.0273775711052373e+00 0 0 0
2946 2946 1 0.0000000000000000e+00 -9.2585181796539509e+00 -5.3103353380086871e+00 -1.0159139513950185e+01 0 0 0
2954 2954 1 0.0000000000000000e+00 -8.5321889141337586e+00 -9.4267865501443033e+00 -9.0655841655753520e+00 0 0 0
3218 3218 1 0.0000000000000000e+00 -1.1165134673674928e+01 -9.5324007823996304e+00 -9.7986205720394111e+00 1 0 1
3040 3040 1 0.0000000000000000e+00 -2.7933287977309398e+00 -7.7506185554402762e+00 -8.4086337045883326e+00 0 0 0
3078 3078 1 0.0000000000000000e+00 -2.3164315361362786e+00 -7.7470428516817584e+00 -1.0676268577595737e+01 0 0 0
7762 7762 2 0.0000000000000000e+00 -1.3420536109273398e+00 -1.0056233897809824e+01 -1.0418225105093084e+01 0 1 0
11249 11249 2 0.0000000000000000e+00 -7.1784414088670943e+00 -1.9647706412397812e+00 -1.0617845629949656e+01 0 0 1
9865 9865 2 0.0000000000000000e+00 -6.9815876469160560e+00 -5.7854311971694559e+00 -1.1576108973733618e+01 0 0 1
3152 3152 1 0.0000000000000000e+00 -6.9269584736409291e+00 -2.6980051690615476e+00 -8.4723050657688717e+00 0 0 0
3175 3175 1 0.0000000000000000e+00 -3.1796797222955453e+00 -2.6046088516260428e+00 -8.2574518771940806e+00 0 0 0
3178 3178 1 0.0000000000000000e+00 -7.7761098453514208e+00 -1.9431782982793373e+00 -6.7181351705483321e+00 0 0 0
7524 7524 2 0.0000000000000000e+00 -1.7562120401435930e+00 -1.0269556543609768e+01 -1.1154084393989901e+01 0 0 1
3196 3196 1 0.0000000000000000e+00 -4.0532344746562270e+00 -5.3701052271976932e+00 -6.2653888941154277e+00 0 0 0
3430 3430 1 0.0000000000000000e+00 -8.5995977714474883e+00 -1.0156556238021540e+01 -1.0352117831024461e+01 0 0 0
3248 3248 1 0.0000000000000000e+00 -4.0832884637570430e+00 -4.1202259331599738e+00 -7.1736495534671203e+00 0 0 0
11224 11224 2 0.0000000000000000e+00 -7.3807594405508397e+00 -1.0760765116191822e+01 -9.9750070807694282e+00 0 0 0
10955 10955 2 0.0000000000000000e+00 -5.4638845542118029e+00 -1.1138949057152356e+01 -1.1554590661203418e+01 0 1 0
2112 2112 1 0.0000000000000000e+00 -1.8364408267817386e-01 -1.0829554053997354e+01 -1.0629859247418660e+01 0 0 0
11331 11331 2 0.0000000000000000e+00 -3.2809116144942667e+00 -2.1449488876416805e+00 -5.9780789668383436e+00 0 0 0
13287 13287 2 0.0000000000000000e+00 -1.4812149929293119e+00 -5.3452344011361286e-01 -8.7868597023233033e+00 0 0 0
3355 3355 1 0.0000000000000000e+00 -1.5615114848636522e+00 -1.0313556111754949e+01 -7.2443003631781702e+00 0 0 0
3357 3357 1 0.0000000000000000e+00 -3.7869256564716842e+00 -5.7017527305119868e+00 -8.8969677534034073e+00 0 0 0
3361 3361 1 0.0000000000000000e+00 -4.6796744372756702e+00 -1.0939187356419865e+01 -8.9182114558195842e+00 0 0 0
3373 3373 1 0.0000000000000000e+00 -2.3147757489124414e+00 -3.3639531998243215e+00 -9.4516768037162215e+00 0 0 0
3384 3384 1 0.0000000000000000e+00 -5.1310252777869154e+00 -1.3919072121637022e+00 -9.2599932460534298e+00 0 0 0
857 857 1 0.0000000000000000e+00 -1.1550904586453172e+00 -5.6836317966319836e+00 -1.0537913857919417e+01 0 0 0
7386 7386 2 0.0000000000000000e+00 -8.5606465030633707e+00 -3.0000458812319661e+00 -1.0248738759363183e+01 1 0 0
3393 3393 1 0.0000000000000000e+00 -9.1030938071606933e+00 -1.4180153852407131e+00 -8.0674857879866302e+00 0 0 0
3397 3397 1 0.0000000000000000e+00 -8.8707721839631546e+00 -6.1043974504231686e+00 -9.0109386947067502e+00 0 0 0
7299 7299 2 0.0000000000000000e+00 -5.2569252733063321e+00 -1.5150853904526491e+00 -8.1371733949816143e+00 0 0 0
12973 12973 2 0.0000000000000000e+00 -6.9353283357024011e+00 -1.1152355729117822e+01 -7.0358052303086058e+00 0 0 0
3422 3422 1 0.0000000000000000e+00 -5.0304019746844482e+00 -1.5605383845790428e+00 -1.1276295047556340e+01 0 0 0
12333 12333 2 0.0000000000000000e+00 -9.7641433259003261e+00 -6.6861873321268659e+00 -1.0503283402074747e+01 0 0 1
3432 3432 1 0.0000000000000000e+00 -9.1193526164315060e+00 -9.8011974973615210e+00 -7.1259803089352731e+00 0 0 0
3433 3433 1 0.0000000000000000e+00 -8.2718031824047138e+00 -8.2182089085832164e+00 -7.5703962588194624e+00 0 0 0
2986 2986 1 0.0000000000000000e+00 -4.8732085355732840e-01 -7.9616249958956509e-01 -8.5384237022714977e+00 0 0 0
3481 3481 1 0.0000000000000000e+00 -1.2435104310458160e+00 -8.1010046045901074e+00 -9.2103923104865491e+00 0 0 0
3488 3488 1 0.0000000000000000e+00 -6.6420794590421361e-01 -2.8257026905790288e+00 -8.0038680275588217e+00 0 0 0
3520 3520 1 0.0000000000000000e+00 -3.5056053671114422e+00 -1.1766850521379422e+00 -7.0554102252569315e+00 0 0 0
3527 3527 1 0.0000000000000000e+00 -7.8810157023244436e+00 -7.7866049217382483e-01 -9.6747712292870123e+00 0 0 0
3558 3558 1 0.0000000000000000e+00 -1.8902698105303766e+00 -7.6112117714499465e+00 -1.0041374944870389e+01 0 0 0
3567 3567 1 0.0000000000000000e+00 -4.7903151485455746e+00 -5.3475547736546405e+00 -1.0552202729302678e+01 0 0 0
3568 3568 1 0.0000000000000000e+00 -1.8109682396594642e+00 -3.7767599335449620e+00 -7.1046982744474176e+00 0 0 0
1464 1464 1 0.0000000000000000e+00 -1.9859380960320047e-01 -9.8042009038963507e-01 -1.0835134387390791e+01 0 0 0
11547 11547 2 0.0000000000000000e+00 -1.1179204907386772e+01 -2.3799245128678428e+00 -9.9936631484063891e+00 1 0 0
13725 13725 2 0.0000000000000000e+00 -5.2215628288925418e+00 -1.1318722352101906e+01 -7.9948519411148888e+00 0 0 0
2631 2631 1 0.0000000000000000e+00 -4.7905326589782122e+00 -3.3905635205281115e+00 -1.1060530857026009e+01 0 0 0
3674 3674 1 0.0000000000000000e+00 -6.1385880454191453e+00 -5.8823870536086273e+00 -9.9418235223865086e+00 0 0 0
3708 3708 1 0.0000000000000000e+00 -8.3423888193465956e+00 -6.6194587071133952e+00 -1.0085153259064189e+01 0 0 0
5042 5042 1 0.0000000000000000e+00 -2.0172310770190163e-01 -1.6173772165679361e+00 -6.4148991786316181e+00 0 0 0
4831 4831 1 0.0000000000000000e+00 -1.7424369654441194e+00 -1.9670714026616742e+00 -1.1067241246002924e+01 0 0 1
3759 3759 1 0.0000000000000000e+00 -3.3515779482258670e+00 -8.7313836732479455e+00 -7.7456194814377302e+00 0 0 0
3767 3767 1 0.0000000000000000e+00 -5.7398535641242159e+00 -1.2608335649221118e+00 -1.0496161513875807e+01 0 0 0
10073 10073 2 0.0000000000000000e+00 -8.0669920804635797e+00 -1.9264625116772691e+00 -8.0304130990237201e+00 0 0 0
167 167 1 0.0000000000000000e+00 -5.3710325404016199e-02 -1.1439511189632524e+01 -8.3548692559563627e+00 0 1 0
48 48 1 0.0000000000000000e+00 -1.1342474438159321e+01 -5.8388506001113516e+00 -1.1493052190068324e+01 1 0 0
3843 3843 1 0.0000000000000000e+00 -1.1295885909411494e+01 -1.0019106309070239e+01 -7.1412874046721271e+00 0 0 0
3267 3267 1 0.0000000000000000e+00 -9.4170497669947029e+00 -4.3344774021889707e+00 -1.0568983698077556e+01 0 0 0
3953 3953 1 0.0000000000000000e+00 -5.5404334273390923e+00 -8.0959631248520267e+00 -8.6710980010737639e+00 0 0 0
9711 9711 2 0.0000000000000000e+00 -7.3398979142710621e+00 -6.1360100840274745e+00 -9.7578631346949116e+00 0 0 0
4028 4028 1 0.0000000000000000e+00 -1.1872697253917459e+00 -8.4264514199578144e+00 -7.9500472171901073e+00 0 0 0
13519 13519 2 0.0000000000000000e+00 -9.3016465389861289e-02 -1.5660146853482597e+00 -9.8349417905797303e+00 0 0 0
4060 4060 1 0.0000000000000000e+00 -9.6076618727106968e+00 -2.7576698140873965e+00 -8.5481991645055171e+00 0 0 0
4062 4062 1 0.0000000000000000e+00 -7.9936254920877783e+00 -7.4014866448660692e+00 -7.9180349869729447e+00 0 0 0
4089 4089 1 0.0000000000000000e+00 -2.9283142292440445e+00 -6.2362621278146655e+00 -7.0064452692039758e+00 0 0 0
4101 4101 1 0.0000000000000000e+00 -1.1188568386542155e+01 -3.8531667125173863e+00 -1.1384522549821430e+01 0 0 0
5963 5963 1 0.0000000000000000e+00 -1.1381958158629152e+01 -1.1592559560982822e+01 -1.0170789437602462e+01 0 0 0
4130 4130 1 0.0000000000000000e+00 -4.5506707100099408e+00 -4.7308765816240399e+00 -7.7676198308327340e+00 0 0 0
4155 4155 1 0.0000000000000000e+00 -4.3709664289003767e+00 -6.4744200863508556e+00 -9.7000501966981663e+00 0 0 0
4167 4167 1 0.0000000000000000e+00 -9.2025517216803578e+00 -9.3991333492828169e+00 -7.8435895116665515e+00 0 0 0
13078 13078 2 0.0000000000000000e+00 -1.6915401697426105e+00 -7.1860806461470605e-01 -7.7393725905830548e+00 0 0 0
4201 4201 1 0.0000000000000000e+00 -9.8536402896010034e-01 -3.3105933016067430e+00 -7.4505271106999187e+00 0 0 0
11561 11561 2 0.0000000000000000e+00 -1.5023572027314012e+00 -1.1483555423469161e+01 -6.9511273993522931e+00 0 1 0
8306 8306 2 0.0000000000000000e+00 -1.0138837841132123e+01 -9.6480477218983030e-01 -9.4403416143557273e+00 0 0 0
4226 4226 1 0.0000000000000000e+00 -1.0592970961310855e-01 -8.8940429761601933e+00 -1.0347395007278463e+01 0 0 0
4257 4257 1 0.0000000000000000e+00 -6.5405596588224526e+00 -1.0289081360497118e+01 -8.3467373223967627e+00 0 0 0
4269 4269 1 0.0000000000000000e+00 -1.6555816951948175e+00 -1.4817900369861414e+00 -1.0133947309610736e+01 0 0 0
4294 4294 1 0.0000000000000000e+00 -6.5618385464422877e+00 -8.6231458833177843e+00 -1.0789421211077000e+01 0 0 0
4304 4304 1 0.0000000000000000e+00 -6.0123933059607051e+00 -9.9930800216057190e+00 -1.1104684761140714e+01 0 0 0
10842 10842 2 0.0000000000000000e+00 -6.4562707561308086e+00 -4.3878321449379500e+00 -1.1388052493474635e+01 0 0 0
8587 8587 2 0.0000000000000000e+00 -6.8690474399137607e+00 -6.3116280206006588e+00 -1.0834469931226078e+01 0 0 1
4318 4318 1 0.0000000000000000e+00 -3.2318292502904873e+00 -8.3293692540776565e+00 -6.7839333061881115e+00 0 0 0
4319 4319 1 0.0000000000000000e+00 -9.4295095413797867e+00 -2.1738336804446123e+00 -7.7306831402598633e+00 0 0 0
4333 4333 1 0.0000000000000000e+00 -4.3368239204784587e+00 -5.5932699831153680e+00 -9.7442905546251382e+00 0 0 0
13652 13652 2 0.0000000000000000e+00 -1.0489027115659331e+01 -2.1118010856700824e+00 -7.5147137781362687e+00 1 0 0
4343 4343 1 0.0000000000000000e+00 -9.7261523438119344e+00 -5.1401247400001218e+00 -1.1008421699777090e+01 0 0 0
4345 4345 1 0.0000000000000000e+00 -8.3357190319622312e+00 -4.6159870047766161e+00 -7.6108290166002028e+00 0 0 0
8254 8254 2 0.0000000000000000e+00 -7.0624205243931248e+00 -6.5664009248631772e-01 -1.0180850479377938e+01 0 0 0
4354 4354 1 0.0000000000000000e+00 -4.8880770161295226e+00 -3.9271095500065036e+00 -6.7971740617421714e+00 0 0 0
4361 4361 1 0.0000000000000000e+00 -7.0516565938238074e+00 -9.2918210599826043e+00 -9.8677983715142492e+00 0 0 0