LAMMPS data file via write_data, version 3 Mar 2020, timestep = 0

13824 atoms
2 atom types

-1.1662543858799999e+01 1.1662543858799999e+01 xlo xhi
-1.1662543858799999e+01 1.1662543858799999e+01 ylo yhi
-1.1662543858799999e+01 1.1662543858799999e+01 zlo zhi

Masses

1 1
2 1

Atoms # full

2470 2470 1 0.0000000000000000e+00 -7.9893898667650056e+00 -1.7793767741443014e+00 -1.1499516440444779e+01 0 0 1
28 28 1 0.0000000000000000e+00 -3.7790461077290356e+00 -4.8542875085087474e+00 -8.2257260316358192e+00 0 0 0
2268 2268 1 0.0000000000000000e+00 -3.4630179788415330e+00 -5.8875272078647738e+00 -1.1374898370909003e+01 0 0 1
403 403 1 0.0000000000000000e+00 -7.7489643158808343e+00 -1.0310880623667090e+01 -1.1361599721988187e+01 0 0 1
61 61 1 0.0000000000000000e+00 -9.7616968732873435e+00 -1.1136500153237263e+01 -6.8785302477306152e+00 0 0 0
71 71 1 0.0000000000000000e+00 -4.5624882658018615e+00 -8.5978041242519385e+00 -7.6468742285736866e+00 0 0 0
79 79 1 0.0000000000000000e+00 -7.1979749841834080e+00 -1.0061452648898104e+01 -8.3061367279208191e+00 0 0 0
2077 2077 1 0.0000000000000000e+00 -1.0812586555624405e+01 -6.6327339202937701e+00 -9.8516242222630854e+00 0 0 0
211 211 1 0.0000000000000000e+00 -9.6715494429972857e+00 -1.6261004616356041e+00 -1.0330369652210424e+01 0 0 0
247 247 1 0.0000000000000000e+00 -8.8821154080689269e+00 -7.3841475077256191e-01 -8.4359157944139618e+00 0 0 0
13109 13109 2 0.0000000000000000e+00 -1.1618770809734560e+01 -7.6314888571354169e+00 -6.1908114178615641e+00 1 0 0
3339 3339 1 0.0000000000000000e+00 -1.1106749934710654e+01 -2.8472656671872487e+00 -9.5846706647601394e+00 0 0 0
353 353 1 0.0000000000000000e+00 -3.1789608170081618e-01 -6.4842393017186684e+00 -6.7923737138610614e+00 0 0 0
360 360 1 0.0000000000000000e+00 -6.8151526597414591e+00 -7.5040922080466856e+00 -1.0767193305439372e+01 0 0 0
368 368 1 0.0000000000000000e+00 -5.4707650161837149e+00 -1.0541416250307707e+01 -7.6822016878815669e+00 0 0 0
383 383 1 0.0000000000000000e+00 -5.2751759998041639e+00 -1.1215245772236262e+01 -9.9264212847247038e+00 0 0 0
13824 13824 2 0.0000000000000000e+00 -3.7387700141281606e+00 -3.8571239608838268e+00 -6.9405790645508487e+00 0 0 0
389 389 1 0.0000000000000000e+00 -4.6198554609941374e+00 -1.0873352578890684e+01 -7.0383511566021566e+00 0 0 0
393 393 1 0.0000000000000000e+00 -5.5554896993493976e+00 -6.2602332496519919e+00 -1.0589415050919404e+01 0 0 0
417 417 1 0.0000000000000000e+00 -4.1558171498801260e+00 -7.8472095939945525e+00 -7.4284665776463772e+00 0 0 0
4942 4942 1 0.0000000000000000e+00 -9.3757616453549875e-01 -4.5425019218134031e+00 -1.1295635076612164e+01 0 0 0
384 384 1 0.0000000000000000e+00 -2.4782098999562155e-01 -2.0783937734451468e+00 -1.0498313334282926e+01 0 0 0
461 461 1 0.0000000000000000e+00 -1.0204357659516436e+01 -1.0588181261330064e+01 -8.0117759590210103e+00 0 0 0
486 486 1 0.0000000000000000e+00 -1.7007945504026218e+00 -8.6130758139307151e+00 -9.7908353680470146e+00 0 0 0
491 491 1 0.0000000000000000e+00 -9.2605740937732097e+00 -5.2640963422384690e-01 -7.7080659901654007e+00 0 0 0
504 504 1 0.0000000000000000e+00 -8.4305307175116795e+00 -3.3286001950911301e+00 -1.0813078819138866e+01 0 0 0
2487 2487 1 0.0000000000000000e+00 -8.4269811025163266e-01 -1.1196004546597083e+01 -7.3588213099291231e+00 0 0 0
516 516 1 0.0000000000000000e+00 -5.0142823904315144e+00 -1.9264016813962035e+00 -9.6841054488863421e+00 0 0 0
532 532 1 0.0000000000000000e+00 -1.9030807098311020e+00 -5.1494480308626498e+00 -1.0671850275974940e+01 0 0 0
535 535 1 0.0000000000000000e+00 -7.4228610532441506e+00 -7.9878810818379611e+00 -7.2344291092055100e+00 0 0 0
3463 3463 1 0.0000000000000000e+00 -8.9300864590004121e+00 -1.6884470177957875e+00 -1.1027589583628426e+01 0 0 0
558 558 1 0.0000000000000000e+00 -7.9567638421905640e-01 -1.0491947345865816e+01 -7.1711026093970824e+00 0 0 0
8876 8876 2 0.0000000000000000e+00 -6.4708064679223458e+00 -9.6231350284334436e+00 -1.1015431985096098e+01 0 0 0
585 585 1 0.0000000000000000e+00 -8.7736938838150991e+00 -6.9198362001539273e+00 -9.2407602654473209e+00 0 0 0
9600 9600 2 0.0000000000000000e+00 -1.1331259247852440e+01 -1.0120887925549400e+01 -7.4566310331651566e+00 1 0 0
617 617 1 0.0000000000000000e+00 -8.3773479197420748e+00 -9.6972230961225137e+00 -7.9551555361401904e+00 0 0 0
625 625 1 0.0000000000000000e+00 -3.7654759027708145e+00 -8.3219776875402687e+00 -9.4852564940999677e+00 0 0 0
626 626 1 0.0000000000000000e+00 -8.7410297652325966e+00 -9.8775467416474783e+00 -9.9316299971554027e+00 0 0 0
638 638 1 0.0000000000000000e+00 -1.0623042553288069e+01 -1.0720315989349606e+01 -1.0269306632086296e+01 0 0 0
3605 3605 1 0.0000000000000000e+00 -1.9810726462401431e+00 -5.2708233509335756e-01 -7.8387708017168114e+00 0 0 0
663 663 1 0.0000000000000000e+00 -4.5431526080396143e+00 -5.5233050685487708e+00 -8.6871162583063981e+00 0 0 0
704 704 1 0.0000000000000000e+00 -9.3795154575964403e+00 -6.3260680841959589e+00 -9.1211491958229605e+00 0 0 0
705 705 1 0.0000000000000000e+00 -9.0760730759731842e+00 -1.9696486606518473e+00 -9.5148716753266065e+00 0 0 0
706 706 1 0.0000000000000000e+00 -1.0468252905572113e+01 -6.3333811092035424e+00 -1.0810908902045005e+01 0 0 0
709 709 1 0.0000000000000000e+00 -7.5446176849582711e+00 -1.0339428869790080e+01 -1.0462819138256426e+01 0 0 0
9265 9265 2 0.0000000000000000e+00 -5.0436176964957227e+00 -5.0821570677563610e+00 -1.1320806718542411e+01 0 0 0
719 719 1 0.0000000000000000e+00 -2.1233168705027352e+00 -3.8029122620441664e+00 -9.7326626146059887e+00 0 0 0
11339 11339 2 0.0000000000000000e+00 -2.0402739590910106e+00 -3.4660327257479590e-01 -9.8022512668904369e+00 0 0 0
13083 13083 2 0.0000000000000000e+00 -1.8484162555928350e+00 -1.1176386597461054e+01 -9.9385771215453165e+00 0 1 0
4258 4258 1 0.0000000000000000e+00 -1.0928556750098725e+01 -1.9680918464529701e-01 -1.1235785269836841e+01 0 0 0
800 800 1 0.0000000000000000e+00 -7.6307564600048563e+00 -2.2707356883550753e+00 -7.6036296182641134e+00 0 0 0
10192 10192 2 0.0000000000000000e+00 -5.5194741468302366e+00 -1.1645808542891368e+01 -7.0348128789084647e+00 0 1 0
817 817 1 0.0000000000000000e+00 -5.4896058769504199e+00 -6.2315351626350806e+00 -6.3924391145645911e+00 0 0 0
857 857 1 0.0000000000000000e+00 -5.7964858366976273e+00 -2.7877845700342463e+00 -7.6258933791912149e+00 0 0 0
870 870 1 0.0000000000000000e+00 -7.9626290861013249e+00 -4.4021402708202393e+00 -8.6663260091185315e+00 0 0 0
874 874 1 0.0000000000000000e+00 -2.4292382589911696e+00 -3.4692058198337254e+00 -6.4431547298706029e+00 0 0 0
8 8 1 0.0000000000000000e+00 -2.9400981003202170e-01 -1.1759346885790485e+00 -7.3781938307122727e+00 0 0 0
2346 2346 1 0.0000000000000000e+00 -1.0973082018159444e+01 -1.1496559486418223e+01 -6.0121985150404846e+00 0 1 0
881 881 1 0.0000000000000000e+00 -7.7382252948153187e+00 -5.5805197760076108e+00 -6.5264088215364628e+00 0 0 0
888 888 1 0.0000000000000000e+00 -6.7336764388266301e+00 -8.6378445977654206e+00 -6.9940815513268282e+00 0 0 0
2591 2591 1 0.0000000000000000e+00 -2.1791200101814714e+00 -8.4347494684896596e+00 -1.1029585173493198e+01 0 0 0
910 910 1 0.0000000000000000e+00 -6.4448254806567293e+00 -7.0395877823095629e+00 -7.7109533650459072e+00 0 0 0
916 916 1 0.0000000000000000e+00 -2.8410128342758392e+00 -6.5495666519213609e+00 -9.6936434261962283e+00 0 0 0
922 922 1 0.0000000000000000e+00 -1.0839512368495962e+01 -8.6260695272074202e+00 -1.0163633601183809e+01 0 0 0
953 953 1 0.0000000000000000e+00 -3.9751794925356152e+00 -6.6951942715547483e+00 -8.5481086249698599e+00 0 0 0
956 956 1 0.0000000000000000e+00 -2.3123215263355212e+00 -1.5279061894740040e+00 -1.1519004319232014e+01 0 0 0
980 980 1 0.0000000000000000e+00 -6.6557499339181740e+00 -2.6790410221425409e+00 -7.2356904433374689e+00 0 0 0
4476 4476 1 0.0000000000000000e+00 -4.8707072121726522e+00 -4.1280300214287919e+00 -1.0581661968109065e+01 0 0 0
990 990 1 0.0000000000000000e+00 -1.0633040983998860e+01 -1.7422994038037853e+00 -8.2160740173830664e+00 0 0 0
992 992 1 0.0000000000000000e+00 -7.7452954915997028e+00 -3.2371374781692457e+00 -6.9754130298135619e+00 0 0 0
1015 1015 1 0.0000000000000000e+00 -8.2327773067536327e+00 -7.4523689405971432e+00 -9.9634382252211129e+00 0 0 0
1062 1062 1 0.0000000000000000e+00 -2.0263465856626475e+00 -3.3560373898784692e+00 -8.8163929160868193e+00 0 0 0
1091 1091 1 0.0000000000000000e+00 -2.9753123904358034e+00 -5.7876911654512373e+00 -6.6979983607203994e+00 0 0 0
1103 1103 1 0.0000000000000000e+00 -2.5360766017432819e+00 -9.3304904277083427e+00 -7.6418721576029816e+00 0 0 0
1105 1105 1 0.0000000000000000e+00 -1.0704437471990317e+01 -8.0331110131439285e+00 -8.1092924947536194e+00 0 0 0
1116 1116 1 0.0000000000000000e+00 -4.0121631086722918e+00 -7.4976471620669720e+00 -6.6629551212907172e+00 0 0 0
816 816 1 0.0000000000000000e+00 -7.1422967020519779e-01 -6.4762934003492427e+00 -8.8382098343275040e+00 0 0 0
10761 10761 2 0.0000000000000000e+00 -1.1513534012009508e+01 -8.2600839238861248e+00 -7.3278639508302366e+00 0 0 0
1154 1154 1 0.0000000000000000e+00 -1.1567759855283793e+01 -9.0329918132359026e+00 -9.7652910303517970e+00 0 0 0
10892 10892 2 0.0000000000000000e+00 -1.0511303174880860e+01 -3.1763271570674596e+00 -6.1192167823593024e+00 0 0 0
5978 5978 1 0.0000000000000000e+00 -1.1207937283727864e+01 -8.6786555728930583e+00 -6.5669650109266220e+00 1 0 0
1224 1224 1 0.0000000000000000e+00 -9.3197573582841287e+00 -5.0572693232473851e+00 -7.0622177900093934e+00 0 0 0
3848 3848 1 0.0000000000000000e+00 -5.1597449916097728e+00 -3.6979681439408940e-02 -5.9044463140733914e+00 0 0 0
12223 12223 2 0.0000000000000000e+00 -1.4213489142223699e+00 -1.1517507031673466e+01 -1.0751280346529949e+01 0 1 0
1255 1255 1 0.0000000000000000e+00 -1.0092920873900738e+01 -3.2208017998517815e+00 -7.3165501996231717e+00 0 0 0
1259 1259 1 0.0000000000000000e+00 -2.7636795401830598e+00 -1.4234206115680905e+00 -9.4270338346799054e+00 0 0 0
6066 6066 1 0.0000000000000000e+00 -9.8205941086020818e+00 -3.9316369105890253e-01 -8.4557479866591763e+00 0 0 0
9631 9631 2 0.0000000000000000e+00 -8.7878852556706786e+00 -3.6868913007982829e+00 -1.1554979844233756e+01 0 0 1
1295 1295 1 0.0000000000000000e+00 -5.0115709009890157e+00 -2.0164921213305935e+00 -5.9175646277010099e+00 0 0 0
1308 1308 1 0.0000000000000000e+00 -2.2612048979934021e+00 -2.0232611226409105e+00 -1.0191088758634088e+01 0 0 0
1323 1323 1 0.0000000000000000e+00 -2.2687869544970729e+00 -1.0228449518644339e+01 -9.4182922496489780e+00 0 0 0
1327 1327 1 0.0000000000000000e+00 -3.1489685987940570e+00 -2.9705226165103396e+00 -8.5681554637511894e+00 0 0 0
4794 4794 1 0.0000000000000000e+00 -1.0575328683823793e+01 -1.1651751186452930e+01 -1.0232024038507674e+01 0 1 0
1346 1346 1 0.0000000000000000e+00 -3.9702209972512175e+00 -2.8512349807034139e+00 -7.7458260085823216e+00 0 0 0
9832 9832 2 0.0000000000000000e+00 -1.2471401244624900e+00 -8.5362153060007540e+00 -1.1520010260934802e+01 0 0 0
8564 8564 2 0.0000000000000000e+00 -2.5425556634536695e+00 -1.1263737051827055e+01 -8.9252175413373802e+00 0 1 0
1389 1389 1 0.0000000000000000e+00 -5.1143949525582304e+00 -3.6828442991211725e+00 -8.1727410805948058e+00 0 0 0
1392 1392 1 0.0000000000000000e+00 -7.1980317291185951e+00 -5.3571634389017229e+00 -7.1656453515731089e+00 0 0 0
428 428 1 0.0000000000000000e+00 -2.3178207138573084e-01 -8.2781155167775289e+00 -8.9620224572377136e+00 0 0 0
1470 1470 1 0.0000000000000000e+00 -4.4086088565109609e+00 -1.0868139844611258e+01 -9.8718920516055810e+00 0 0 0
1493 1493 1 0.0000000000000000e+00 -7.6038810875664140e+00 -4.7305058425487712e+00 -1.0674509472179791e+01 0 0 0
1503 1503 1 0.0000000000000000e+00 -7.5904503170700215e+00 -8.2664986879504898e+00 -8.1294830633656137e+00 0 0 0
6199 6199 1 0.0000000000000000e+00 -1.1620030724772057e+01 -1.9122334555718483e+00 -8.1057053092374503e+00 0 0 0
1513 1513 1 0.0000000000000000e+00 -2.9629274777733872e+00 -4.5407963682397758e+00 -6.2512297307066707e+00 0 0 0
1265 1265 1 0.0000000000000000e+00 -8.6959954585646368e+00 -2.4633558709649495e+00 -1.1459381864749773e+01 0 0 0
9529 9529 2 0.0000000000000000e+00 -1.8990826037798931e+00 -9.5119247597081209e+00 -1.1281033077969431e+01 0 0 1
9440 9440 2 0.0000000000000000e+00 -9.4170490612933495e+00 -4.6097800873105621e+00 -1.1392057514479168e+01 0 0 0
1600 1600 1 0.0000000000000000e+00 -6.2759058403395542e+00 -6.7560463574274774e+00 -1.0806473876374627e+01 0 0 0
1633 1633 1 0.0000000000000000e+00 -7.3787567543788324e-01 -1.0478724955603809e+01 -1.1281716130321463e+01 0 0 0
1653 1653 1 0.0000000000000000e+00 -6.2112644594642745e+00 -9.9146619239728810e+00 -8.3495391166814805e+00 0 0 0
1654 1654 1 0.0000000000000000e+00 -8.5781661158965914e+00 -7.5172025132025331e+00 -1.0782140588657386e+01 0 0 0
1700 1700 1 0.0000000000000000e+00 -3.8069398326222998e+00 -9.9439710867531463e+00 -7.2403772938664925e+00 0 0 0
3202 3202 1 0.0000000000000000e+00 -1.1056702115804848e+01 -5.4881527396302960e+00 -1.1200726640595999e+01 1 0 1
1723 1723 1 0.0000000000000000e+00 -7.9725562989288177e+00 -8.3945382837151428e+00 -9.4245419192871633e+00 0 0 0
1749 1749 1 0.0000000000000000e+00 -9.2647052175075952e+00 -5.3791016592542151e+00 -1.0425071786722295e+01 0 0 0
1781 1781 1 0.0000000000000000e+00 -8.2772790136688492e+00 -1.0838901540919171e+01 -1.0242698813792064e+01 0 0 0
4536 4536 1 0.0000000000000000e+00 -1.0531767434568016e+01 -6.2253607096532337e-01 -6.6484412338806997e+00 0 0 0
2950 2950 1 0.0000000000000000e+00 -1.1338177584240739e+01 -4.3853430347504139e+00 -7.3677644830212197e+00 0 0 0
1845 1845 1 0.0000000000000000e+00 -5.0852519169562189e+00 -6.1681920856730414e+00 -9.2569415036744243e+00 0 0 0
4974 4974 1 0.0000000000000000e+00 -1.1164093626608619e+01 -6.2697471651444685e+00 -9.1567861936637396e+00 1 0 0
1850 1850 1 0.0000000000000000e+00 -6.9126014568810685e+00 -1.0963351807686726e+01 -9.7968217503633923e+00 0 0 0
1861 1861 1 0.0000000000000000e+00 -9.5232486386195490e+00 -2.4301936435101532e+00 -6.8368532717652046e+00 0 0 0
1909 1909 1 0.0000000000000000e+00 -9.9929202014001977e+00 -6.0784672501634649e+00 -7.1408841020898057e+00 0 0 0
5722 5722 1 0.0000000000000000e+00 -9.4971079679189625e+00 -9.2241021517780535e+00 -9.7882784402044489e+00 0 0 1
11288 11288 2 0.0000000000000000e+00 -1.3293354470644652e+00 -9.2211627943765730e+00 -1.0655193861204852e+01 0 0 0
1925 1925 1 0.0000000000000000e+00 -1.0034986141906511e+01 -6.3810622714312775e+00 -6.2798433555589783e+00 0 0 0
1930 1930 1 0.0000000000000000e+00 -2.7220526134871865e+00 -1.1271513615805350e+01 -7.3796600843141915e+00 0 0 0
1934 1934 1 0.0000000000000000e+00 -1.7501233843811694e+00 -8.3447125826499224e+00 -8.9115874000585116e+00 0 0 0
4932 4932 1 0.0000000000000000e+00 -1.1135173855755525e+01 -6.8522061851088099e+00 -1.0700138368078882e+01 0 0 0
1962 1962 1 0.0000000000000000e+00 -4.7960435619225130e+00 -8.0565124425445287e+00 -1.1285983427164005e+01 0 0 0
11547 11547 2 0.0000000000000000e+00 -1.0840359528769971e+01 -7.7390689120689444e+00 -6.8019098850039930e+00 1 0 0
10007 10007 2 0.0000000000000000e+00 -3.3222753511161100e-02 -7.1506366240942949e+00 -1.0693266525275787e+01 0 0 0
5104 5104 1 0.0000000000000000e+00 -1.1707275247237074e-02 -4.6375394167699682e+00 -1.1514234204839010e+01 0 0 1
2039 2039 1 0.0000000000000000e+00 -7.6872220469789410e+00 -8.0821350454799123e+00 -1.0268795996092287e+01 0 0 0
4763 4763 1 0.0000000000000000e+00 -9.4529983109133049e+00 -6.1300257789898349e-01 -1.0342163480072047e+01 0 0 0
2042 2042 1 0.0000000000000000e+00 -1.2155831947053517e+00 -8.9078024760579417e+00 -8.8728882821968149e+00 0 0 0
2048 2048 1 0.0000000000000000e+00 -2.4187457628662604e-01 -7.7421863047034112e+00 -8.3587456067581734e+00 0 0 0
7219 7219 2 0.0000000000000000e+00 -5.5067530808012322e-01 -9.8314724363476635e+00 -7.7564951841407375e+00 0 0 0
2079 2079 1 0.0000000000000000e+00 -2.2230521638396170e+00 -5.7637588290119561e+00 -8.6262014028895244e+00 0 0 0
2682 2682 1 0.0000000000000000e+00 -6.7305441191129995e+00 -7.4105398466244643e-01 -8.3302022624048799e+00 0 0 0
2136 2136 1 0.0000000000000000e+00 -1.8944955568702171e+00 -2.2929695095648390e+00 -1.0983781412493189e+01 0 0 0
8805 8805 2 0.0000000000000000e+00 -1.1096678385835267e+01 -9.3732837812102670e+00 -1.1069035198930782e+01 0 0 0
4156 4156 1 0.0000000000000000e+00 -7.2891434703945457e+00 -1.6185153558065473e+00 -1.1038673687529815e+01 0 0 1
2164 2164 1 0.0000000000000000e+00 -8.6755759518937623e+00 -1.1400680767602539e+01 -9.3592790901560026e+00 0 0 0
5639 5639 1 0.0000000000000000e+00 -2.5589941078307348e+00 -4.7807566517580669e-01 -6.5964245816818341e+00 0 0 0
2183 2183 1 0.0000000000000000e+00 -3.7360531311813139e+00 -3.6664313770285792e+00 -8.1870714088391257e+00 0 0 0
5109 5109 1 0.0000000000000000e+00 -6.3400680540779017e+00 -8.9475824072818433e-01 -9.2715725872519119e+00 0 0 0
2193 2193 1 0.0000000000000000e+00 -1.3406947201389072e+00 -1.1018313346716941e+01 -9.0747191437655275e+00 0 0 0
2211 2211 1 0.0000000000000000e+00 -1.4818642795756587e+00 -6.7369686645772964e+00 -6.9257236319787960e+00 0 0 0
2219 2219 1 0.0000000000000000e+00 -7.1058801251315247e+00 -8.2530293291940762e+00 -8.9978220362406631e+00 0 0 0
1797 1797 1 0.0000000000000000e+00 -9.3926030059100043e+00 -1.1657802114321965e+01 -1.1607513339944639e+01 0 0 0
2227 2227 1 0.0000000000000000e+00 -1.3508733286694712e+00 -3.4323558963839274e+00 -7.0979397096508539e+00 0 0 0
7277 7277 2 0.0000000000000000e+00 -1.0602135698561639e+01 -1.0330176979081442e+01 -6.8238737786954964e+00 1 0 0
5789 5789 1 0.0000000000000000e+00 -5.3263646434387422e+00 -2.1052647140328560e+00 -1.1496616360855477e+01 0 0 1
4791 4791 1 0.0000000000000000e+00 -5.4059573009049302e+00 -9.9783441930465955e+00 -1.1357378801874553e+01 0 0 0
2329 2329 1 0.0000000000000000e+00 -6.1837355221209886e+00 -7.9347271217193587e+00 -7.4368720673265560e+00 0 0 0
2334 2334 1 0.0000000000000000e+00 -1.0674410824751334e+01 -3.6937825044369550e+00 -7.4653670424553980e+00 0 0 0
2336 2336 1 0.0000000000000000e+00 -5.5497383491927543e+00 -6.1165844478065274e+00 -7.6585962121779945e+00 0 0 0
2347 2347 1 0.0000000000000000e+00 -9.9022325802077269e+00 -2.3629340893190363e+00 -7.7681493457370587e+00 0 0 0
2349 2349 1 0.0000000000000000e+00 -1.0457002730778385e+01 -2.2348502861149364e+00 -8.9215988384772960e+00 0 0 0
5697 5697 1 0.0000000000000000e+00 -1.0029495374836817e+01 -5.4004248959888042e+00 -1.1325742557224432e+01 1 0 1
2385 2385 1 0.0000000000000000e+00 -1.3090460568749429e+00 -7.5406180098608058e+00 -1.1425908697545969e+01 0 0 1
7232 7232 2 0.0000000000000000e+00 -5.0252031932444519e+00 -4.6218674034198109e-01 -1.0161128034212215e+01 0 0 0
2450 2450 1 0.0000000000000000e+00 -5.8832838780203813e+00 -6.2711834568304985e+00 -8.9123249310082393e+00 0 0 0
2456 2456 1 0.0000000000000000e+00 -9.6156676828191721e+00 -3.9878234043729277e+00 -6.8667017909750800e+00 0 0 0
2464 2464 1 0.0000000000000000e+00 -2.7481049482279460e+00 -1.0136375749665776e+01 -7.6025075397306754e+00 0 0 0
6401 6401 1 0.0000000000000000e+00 -8.1716632310558451e-02 -9.2388475914497121e+00 -1.0867581373243770e+01 0 0 1
2495 2495 1 0.0000000000000000e+00 -2.7614455222323433e+00 -5.7363749690434451e+00 -9.4708696717117071e+00 0 0 0
1999 1999 1 0.0000000000000000e+00 -6.4409078514536278e+00 -2.2691079670675465e+00 -1.1176504995637622e+01 0 0 0
2540 2540 1 0.0000000000000000e+00 -8.4065015243664281e+00 -9.8162501205385178e-01 -7.0353315194465802e+00 0 0 0
10524 10524 2 0.0000000000000000e+00 -1.1160592376294838e+01 -7.9203798913697376e+00 -1.0952769458327976e+01 1 0 0
13350 13350 2 0.0000000000000000e+00 -1.8037214375690552e-01 -7.7399160208147926e+00 -1.0138369338519752e+01 0 0 0
2575 2575 1 0.0000000000000000e+00 -6.9782453314827393e+00 -7.5313818895305573e+00 -8.0794674317092010e+00 0 0 0
9831 9831 2 0.0000000000000000e+00 -1.8176625948973981e+00 -1.1409221056772584e+01 -8.0744151761155489e+00 0 0 0
2593 2593 1 0.0000000000000000e+00 -4.9899027067433863e+00 -2.5050990665798154e+00 -7.0049724135209184e+00 0 0 0
2600 2600 1 0.0000000000000000e+00 -2.3030938891798787e+00 -4.5345720989592486e+00 -6.8768815463960209e+00 0 0 0
2618 2618 1 0.0000000000000000e+00 -2.3143029014368439e+00 -7.7850188746261297e+00 -8.6894529836391037e+00 0 0 0
2626 2626 1 0.0000000000000000e+00 -2.6584449033145034e+00 -3.2714730758884873e+00 -1.0099746294231322e+01 0 0 0
5019 5019 1 0.0000000000000000e+00 -3.2846602211303333e+00 -9.7114528309934989e-01 -6.3892298693304665e+00 0 0 0
12452 12452 2 0.0000000000000000e+00 -1.0705359943949610e+01 -1.0873615724294574e+01 -1.1620122999264106e+01 0 0 0
2673 2673 1 0.0000000000000000e+00 -2.4604690824667377e+00 -6.5613288276899429e+00 -7.2597537297967856e+00 0 0 0
7464 7464 2 0.0000000000000000e+00 -2.2019034901337867e-01 -4.6721717049628908e-01 -8.2106833333966769e+00 0 0 0
2686 2686 1 0.0000000000000000e+00 -1.0729957021764115e+01 -9.1714885617318220e+00 -7.1619613648255553e+00 0 0 0
2737 2737 1 0.0000000000000000e+00 -1.1264247499921993e+01 -9.6823643119492715e+00 -6.4347450929369874e+00 1 0 0
135 135 1 0.0000000000000000e+00 -7.9375853357859280e-02 -9.0206214471078869e+00 -8.4523910060981127e+00 0 0 0
2712 2712 1 0.0000000000000000e+00 -6.6939415875850949e+00 -4.5394348810314691e+00 -7.8425522177517495e+00 0 0 0
2716 2716 1 0.0000000000000000e+00 -5.3532298201364370e-01 -1.4722511370297526e+00 -9.1570794439346450e+00 0 0 0
2734 2734 1 0.0000000000000000e+00 -5.9044154794526298e+00 -3.7792438087638631e+00 -8.1010385251075228e+00 0 0 0
2759 2759 1 0.0000000000000000e+00 -4.9981138081146401e+00 -1.0629096655793390e+01 -8.8895683375108057e+00 0 0 0
11024 11024 2 0.0000000000000000e+00 -8.7039791219777101e+00 -1.1658920635645080e+01 -6.1518041321587207e+00 0 1 0
2770 2770 1 0.0000000000000000e+00 -5.2380580550471931e+00 -1.8497248657164289e+00 -7.6753912246024001e+00 0 0 0
2781 2781 1 0.0000000000000000e+00 -8.8443112902320364e-01 -6.7429197095735267e+00 -9.8831475805109346e+00 0 0 0
573 573 1 0.0000000000000000e+00 -1.0358672053449007e+01 -1.1181389002848341e+01 -9.3220931523354214e+00 0 0 0
6100 6100 1 0.0000000000000000e+00 -1.6556823531953375e+00 -7.0222460862492753e-01 -6.8560693457367048e+00 0 0 0
2827 2827 1 0.0000000000000000e+00 -9.5283708472871922e+00 -9.6084096530353964e+00 -1.0709998765400398e+01 0 0 0
2845 2845 1 0.0000000000000000e+00 -6.3028745538473787e+00 -1.0320583992804465e+01 -7.5778305864247617e+00 0 0 0
2870 2870 1 0.0000000000000000e+00 -9.2478967741160059e+00 -5.9016917195985537e+00 -7.1906031481648300e+00 0 0 0
2881 2881 1 0.0000000000000000e+00 -4.4795017342799879e+00 -7.4195239336100094e-01 -8.1554433156421027e+00 0 0 0
2882 2882 1 0.0000000000000000e+00 -4.3928650467726147e+00 -7.1295140411567148e+00 -8.0241932109345679e+00 0 0 0
2890 2890 1 0.0000000000000000e+00 -8.2878695060443803e+00 -3.8072356067560960e+00 -6.6811029358991760e+00 0 0 0
2905 2905 1 0.0000000000000000e+00 -2.9076038539977707e+00 -2.3371007389454399e+00 -6.7853933994251250e+00 0 0 0
2937 2937 1 0.0000000000000000e+00 -1.7543758289350158e+00 -4.0522581078573960e+00 -6.4510972274063816e+00 0 0 0
13795 13795 2 0.0000000000000000e+00 -1.1041352950231039e+01 -7.6654473002246277e+00 -9.5814187953618521e+00 0 0 0
2971 2971 1 0.0000000000000000e+00 -5.8915159718572330e+00 -8.8704214694744277e+00 -1.0237021743720199e+01 0 0 0
2974 2974 1 0.0000000000000000e+00 -1.7976803516067332e+00 -8.9377927070316190e+00 -6.7126752557289810e+00 0 0 0
2996 2996 1 0.0000000000000000e+00 -2.9104280382621139e+00 -5.0249609137261624e+00 -8.5788870582751429e+00 0 0 0
3001 3001 1 0.0000000000000000e+00 -6.1057562796278493e+00 -5.8267210553393722e+00 -9.7960098307194166e+00 0 0 0
3010 3010 1 0.0000000000000000e+00 -5.9206419211031858e-01 -3.0545238530357608e+00 -6.2866889761757623e+00 0 0 0
3023 3023 1 0.0000000000000000e+00 -9.9796876400232311e+00 -1.1424372536944201e+01 -1.0965072320384870e+01 0 0 0
3053 3053 1 0.0000000000000000e+00 -5.5425757884277864e+00 -4.5705670599241710e+00 -6.3627769137800616e+00 0 0 0
5149 5149 1 0.0000000000000000e+00 -5.3115955783484576e+00 -9.8523782791855607e-01 -1.1103083757866111e+01 0 0 0
3081 3081 1 0.0000000000000000e+00 -3.2397015814323722e+00 -7.5303948749384793e+00 -9.2124375451357601e+00 0 0 0
3105 3105 1 0.0000000000000000e+00 -2.1557819823983455e+00 -4.7845916280728682e+00 -9.7132426642274847e+00 0 0 0
1773 1773 1 0.0000000000000000e+00 -1.0299595338046700e+01 -7.0900198212322669e+00 -1.1118308344162164e+01 0 0 1
3129 3129 1 0.0000000000000000e+00 -8.5983050612365552e+00 -9.5630034850659715e+00 -8.9771587155104822e+00 0 0 0
3141 3141 1 0.0000000000000000e+00 -2.1410793060305964e+00 -7.4923360945452000e+00 -7.4201066304102863e+00 0 0 0
3159 3159 1 0.0000000000000000e+00 -1.0754255162074799e+00 -2.0971037617918795e+00 -1.0217902444883663e+01 0 0 0
3171 3171 1 0.0000000000000000e+00 -5.6598389991585911e+00 -1.3094213980260425e+00 -9.6025453010952120e+00 0 0 0
3198 3198 1 0.0000000000000000e+00 -8.4289218151457650e+00 -1.3905772044752394e+00 -9.1068458946515012e+00 0 0 0
3211 3211 1 0.0000000000000000e+00 -5.9385393840613476e+00 -2.4795157416263952e-01 -1.0060898895959754e+01 0 0 0
12294 12294 2 0.0000000000000000e+00 -1.1497947197213884e+01 -1.0644297576511565e+01 -9.3608309186767613e+00 0 0 0
3229 3229 1 0.0000000000000000e+00 -3.6998256970180878e+00 -9.1032218718747799e+00 -8.9088986050393206e+00 0 0 0
3231 3231 1 0.0000000000000000e+00 -4.0313658866135782e+00 -1.0240630005463061e+01 -8.9123788810619722e+00 0 0 0
8753 8753 2 0.0000000000000000e+00 -1.0123332070690804e+01 -1.0573936930134192e+01 -5.8432816628184252e+00 0 0 0
3255 3255 1 0.0000000000000000e+00 -8.3021705511837691e+00 -2.5246295517082973e+00 -9.2209862586976623e+00 0 0 0
3272 3272 1 0.0000000000000000e+00 -1.7191029973556353e+00 -1.5965839642272024e+00 -6.4455626280097240e+00 0 0 0
8353 8353 2 0.0000000000000000e+00 -8.6487357391709025e+00 -3.8952289150776565e-01 -1.1393838525339868e+01 0 0 1
3290 3290 1 0.0000000000000000e+00 -3.2277096260187736e+00 -6.3763745586669784e-01 -9.7634236478916545e+00 0 0 0
3314 3314 1 0.0000000000000000e+00 -6.4633085460102171e+00 -3.1801763056848538e+00 -9.3010865252439210e+00 0 0 0
11908 11908 2 0.0000000000000000e+00 -8.4651585800587377e+00 -1.1018995921957940e+01 -7.8224563353304166e+00 0 1 0
11637 11637 2 0.0000000000000000e+00 -1.0131585231255713e+01 -8.2974960319164381e+00 -9.5264494796676633e+00 0 0 0
3340 3340 1 0.0000000000000000e+00 -1.1071852709693024e+00 -3.4953805674255181e+00 -9.0143791216528371e+00 0 0 0
3343 3343 1 0.0000000000000000e+00 -7.9847032241306719e+00 -6.5155184929236949e+00 -6.1847818207748659e+00 0 0 0
3377 3377 1 0.0000000000000000e+00 -4.3618897188902341e+00 -1.6989439371720745e+00 -1.0985334140219301e+01 0 0 0
4133 4133 1 0.0000000000000000e+00 -5.5849720207265174e-01 -1.3086221970782808e+00 -1.0050921435801042e+01 0 0 0
2059 2059 1 0.0000000000000000e+00 -1.0195659707152338e+00 -4.8736665902708243e+00 -6.3381651605285771e+00 0 0 0
3408 3408 1 0.0000000000000000e+00 -3.6566059082737792e+00 -8.4763302732511931e+00 -1.0363463394006224e+01 0 0 0
3418 3418 1 0.0000000000000000e+00 -4.6973921796397784e+00 -5.9102701390131314e+00 -1.0770992221457901e+01 0 0 0
3419 3419 1 0.0000000000000000e+00 -3.5109775964937420e+00 -7.4338474646985357e+00 -1.0089098452317767e+01 0 0 0
3438 3438 1 0.0000000000000000e+00 -5.2704806252791752e+00 -8.5410559572882008e+00 -7.1533758268739902e+00 0 0 0
3452 3452 1 0.0000000000000000e+00 -7.4951262703269554e+00 -4.4907816287579365e+00 -7.5491601330581863e+00 0 0 0
3462 3462 1 0.0000000000000000e+00 -1.0313504758144978e+01 -4.0041971603064228e+00 -1.0103134672681270e+01 0 0 0
6998 6998 2 0.0000000000000000e+00 -4.8611510677253174e+00 -6.9618710475523535e+00 -6.2093224109991212e+00 0 0 0
3466 3466 1 0.0000000000000000e+00 -3.9064409598835752e+00 -2.7786014316684432e-01 -7.0919652686370664e+00 0 0 0
3551 3551 1 0.0000000000000000e+00 -4.7110774614736863e+00 -1.0382436028476700e+01 -1.0840939578359286e+01 0 0 0
3554 3554 1 0.0000000000000000e+00 -7.5510078658999369e+00 -4.3618406402934813e+00 -9.7453684601558255e+00 0 0 0
3570 3570 1 0.0000000000000000e+00 -1.3537833577817424e+00 -1.0108202056012308e+01 -9.1349648351624797e+00 0 0 0
9271 9271 2 0.0000000000000000e+00 -6.4728913710333833e+00 -3.3164657891301491e-01 -1.1426170503422973e+01 0 0 1
11769 11769 2 0.0000000000000000e+00 -2.0712798784997877e-01 -4.9532780782954544e-01 -9.9807387499168030e+00 0 0 0
3620 3620 1 0.0000000000000000e+00 -5.5944102376764935e+00 -3.3860370499310553e+00 -1.0057468761270037e+01 0 0 0
3624 3624 1 0.0000000000000000e+00 -7.7847004425072157e+00 -1.8816431212269094e+00 -9.0651447032230497e+00 0 0 0
3659 3659 1 0.0000000000000000e+00 -4.2681879351861447e+00 -4.9004439935314767e+00 -9.4806456264668029e+00 0 0 0
3694 3694 1 0.0000000000000000e+00 -5.8457361841208995e+00 -4.1070656495262003e+00 -1.0781537425959417e+01 0 0 0
3715 3715 1 0.0000000000000000e+00 -8.3916407566515598e+00 -4.7220890564402751e+00 -1.0766784594680828e+01 0 0 0
12536 12536 2 0.0000000000000000e+00 -4.2584216150812884e+00 -4.2665844612495701e-01 -1.0554677772838408e+01 0 0 0
7889 7889 2 0.0000000000000000e+00 -7.8101442406750432e-01 -5.0318074005154498e+00 -1.0424077370937535e+01 0 0 0
3731 3731 1 0.0000000000000000e+00 -2.6494253784970869e+00 -3.9980882690966322e+00 -8.3902603859093450e+00 0 0 0
3757 3757 1 0.0000000000000000e+00 -2.8645773754183872e+00 -6.6181381613518289e+00 -8.5953518718094752e+00 0 0 0
3766 3766 1 0.0000000000000000e+00 -3.4923402117175590e+00 -1.4616900585057018e+00 -8.7205826613540722e+00 0 0 0
3770 3770 1 0.0000000000000000e+00 -2.0452004286084162e+00 -6.5569590749732267e+00 -1.0374326311398558e+01 0 0 0
12166 12166 2 0.0000000000000000e+00 -5.6333494080612549e+00 -7.3864083122885740e+00 -1.1559894493660410e+01 0 0 1
3882 3882 1 0.0000000000000000e+00 -4.9062622860394081e+00 -4.2903104258976281e+00 -1.1598338222085896e+01 0 0 0
3851 3851 1 0.0000000000000000e+00 -8.9244013669609927e+00 -7.8895141413016319e+00 -9.7570426340462060e+00 0 0 0