LAMMPS data file via write_data, version 3 Mar 2020, timestep = 100

13824 atoms
2 atom types

-1.1646783917200001e+01 1.1646783917200001e+01 xlo xhi
-1.1646783917200001e+01 1.1646783917200001e+01 ylo yhi
-1.1646783917200001e+01 1.1646783917200001e+01 zlo zhi

Masses

1 1
2 1

Atoms # full

8 8 1 0.0000000000000000e+00 -3.0555269510870517e+00 -5.4128667145712734e+00 -6.8229651812211713e+00 0 0 0
7158 7158 2 0.0000000000000000e+00 -5.6150176588666021e+00 -2.3211482990562424e+00 -1.1363218481421793e+01 0 0 0
4896 4896 1 0.0000000000000000e+00 -2.7948032278544743e+00 -7.7362578775683470e+00 -1.1382303372899608e+01 0 0 0
44 44 1 0.0000000000000000e+00 -3.1300743427799373e+00 -3.0057530110540083e+00 -1.0326944738538289e+01 0 0 0
12458 12458 2 0.0000000000000000e+00 -6.3827348538615170e-01 -9.0012797426980242e+00 -7.8582871774180445e+00 0 0 0
5272 5272 1 0.0000000000000000e+00 -7.4779829917174272e+00 -4.3116721988189555e-01 -7.9071000180506568e+00 0 0 0
5822 5822 1 0.0000000000000000e+00 -9.8378697529333881e+00 -6.1815195435757397e-01 -7.0941212325723022e+00 0 0 0
134 134 1 0.0000000000000000e+00 -7.2327262771556748e+00 -3.6103139735117797e+00 -1.0788834863701631e+01 0 0 0
135 135 1 0.0000000000000000e+00 -7.7884129104141104e+00 -7.4197798455615942e+00 -9.0542868936472534e+00 0 0 0
137 137 1 0.0000000000000000e+00 -7.9180280761884791e+00 -2.7301411620280271e+00 -9.0113957615282292e+00 0 0 0
5116 5116 1 0.0000000000000000e+00 -1.1456164026971740e+01 -6.5204116968165700e+00 -8.6280966564053330e+00 1 0 0
140 140 1 0.0000000000000000e+00 -7.0610430308166734e+00 -9.7542118530367254e+00 -1.0128123400578479e+01 0 0 0
142 142 1 0.0000000000000000e+00 -5.8623962350462451e+00 -8.6004214309910800e+00 -9.1655669774128441e+00 0 0 0
146 146 1 0.0000000000000000e+00 -8.6220964300604166e+00 -7.0864220635243464e+00 -9.6346131135518043e+00 0 0 0
154 154 1 0.0000000000000000e+00 -3.3597186904829774e+00 -2.8212943141717419e+00 -9.0202371891663624e+00 0 0 0
155 155 1 0.0000000000000000e+00 -8.4511056394147648e+00 -1.1111610088348261e+01 -9.8038479678157149e+00 0 0 0
12660 12660 2 0.0000000000000000e+00 -1.0570320212328220e+01 -1.1025510089368222e+01 -6.9776999004443594e+00 0 0 0
187 187 1 0.0000000000000000e+00 -5.8411162673189869e+00 -4.9991885549308570e+00 -8.3814969035558189e+00 0 0 0
192 192 1 0.0000000000000000e+00 -9.3135586203333300e+00 -3.6849120515524709e+00 -8.8544084229790112e+00 0 0 0
195 195 1 0.0000000000000000e+00 -5.6040300075769311e-01 -6.9735779448974400e+00 -9.5953854269149055e+00 0 0 0
10095 10095 2 0.0000000000000000e+00 -9.5284530135523298e+00 -1.1634835707128445e+01 -9.4874644575005664e+00 0 1 0
205 205 1 0.0000000000000000e+00 -5.5402292126636743e+00 -3.3920548555366254e+00 -1.0149689941938405e+01 0 0 0
208 208 1 0.0000000000000000e+00 -1.0240949153066131e+01 -3.8602553941543336e+00 -8.8916679534128598e+00 0 0 0
8457 8457 2 0.0000000000000000e+00 -3.0449752316295431e+00 -1.0338056957530451e+01 -6.9641235642164814e+00 0 0 0
9036 9036 2 0.0000000000000000e+00 -1.1508138461180623e+01 -1.5463321986158804e+00 -7.3991920614458708e+00 0 0 0
233 233 1 0.0000000000000000e+00 -1.1199989621428418e+01 -8.4876276199765890e+00 -9.6814379999341789e+00 0 0 0
7050 7050 2 0.0000000000000000e+00 -1.0212102478811385e+01 -5.7528564801001743e+00 -7.8543742766799376e+00 1 0 0
4226 4226 1 0.0000000000000000e+00 -1.6572904318881904e-01 -9.2831226877631465e+00 -1.0306931102977043e+01 0 0 0
278 278 1 0.0000000000000000e+00 -5.5819183051948764e+00 -1.0197491886239682e+01 -1.0321709934828899e+01 0 0 0
289 289 1 0.0000000000000000e+00 -3.7951053740875031e+00 -3.0286300378902284e+00 -9.7378274962935354e+00 0 0 0
300 300 1 0.0000000000000000e+00 -1.6716513833121129e+00 -3.6358989923395932e+00 -6.4975926372186228e+00 0 0 0
5368 5368 1 0.0000000000000000e+00 -2.6449933581197347e+00 -1.0405863324378737e+01 -1.0276146021235538e+01 0 1 0
350 350 1 0.0000000000000000e+00 -9.1436124506792513e+00 -7.3737987663012499e+00 -1.0386141023463926e+01 0 0 0
369 369 1 0.0000000000000000e+00 -1.1123866426884241e+01 -1.5775114943917472e+00 -9.7418209891615390e+00 0 0 0
11767 11767 2 0.0000000000000000e+00 -8.2878234763611697e-02 -9.7569527775989027e+00 -7.1127898863914281e+00 0 0 0
382 382 1 0.0000000000000000e+00 -1.1101775505829131e+01 -6.8197330717783329e+00 -7.8616920333025417e+00 0 0 0
11705 11705 2 0.0000000000000000e+00 -8.3278930781258023e+00 -5.1246056539437372e+00 -1.0767590523131364e+01 0 0 0
408 408 1 0.0000000000000000e+00 -8.4409310327738962e-01 -9.0123257078589400e+00 -9.8612788623154319e+00 0 0 0
409 409 1 0.0000000000000000e+00 -6.7251202539745059e+00 -1.0317516003241233e+01 -8.0272656492911807e+00 0 0 0
4472 4472 1 0.0000000000000000e+00 -5.1211741997906000e+00 -1.0791804067791793e+01 -1.0596492122024953e+01 0 1 0
6221 6221 1 0.0000000000000000e+00 -1.0096906324789446e+01 -1.4307838515801108e+00 -8.4862226745272107e+00 0 0 0
510 510 1 0.0000000000000000e+00 -5.6783940609460970e+00 -4.4601860033722511e+00 -7.6148948769336213e+00 0 0 0
511 511 1 0.0000000000000000e+00 -8.3838996532285286e+00 -3.4147461794787279e+00 -8.8564485650526308e+00 0 0 0
5064 5064 1 0.0000000000000000e+00 -1.1156427754042525e+01 -9.8357321606995605e+00 -8.8900968711374198e+00 0 1 0
12666 12666 2 0.0000000000000000e+00 -3.9396190330454667e-01 -4.0463322492988700e+00 -1.1170154298843565e+01 0 0 0
11785 11785 2 0.0000000000000000e+00 -1.0547039192437317e+01 -1.0571888908669624e+01 -8.7862882625409657e+00 0 0 1
630 630 1 0.0000000000000000e+00 -6.1233611445045906e+00 -1.8854729130987982e+00 -8.6072872413093844e+00 0 0 0
650 650 1 0.0000000000000000e+00 -7.0720507144634297e+00 -7.2584588791495053e+00 -8.3854322838538451e+00 0 0 0
7745 7745 2 0.0000000000000000e+00 -1.9930728676721621e+00 -9.8401409466661249e+00 -6.2443717637399594e+00 0 0 0
816 816 1 0.0000000000000000e+00 -9.7528796238345739e-01 -7.6902744129353717e+00 -1.1458658075826030e+01 0 0 0
714 714 1 0.0000000000000000e+00 -6.7579501406024578e+00 -9.2381874687078280e+00 -7.8819038876822729e+00 0 0 0
7326 7326 2 0.0000000000000000e+00 -4.1674508587799508e+00 -5.3770784202555113e+00 -1.1537758812171417e+01 0 0 0
720 720 1 0.0000000000000000e+00 -7.7351823272385429e+00 -9.0829040867105046e+00 -9.3880456733433757e+00 0 0 0
732 732 1 0.0000000000000000e+00 -1.9863063657566096e+00 -6.1917577184362154e+00 -7.4118621241109697e+00 0 0 0
777 777 1 0.0000000000000000e+00 -5.3042584111390276e+00 -9.5211625775487470e+00 -8.6864852445314842e+00 0 0 0
1753 1753 1 0.0000000000000000e+00 -1.0805977549389588e+01 -3.4533283989945915e+00 -1.1342288864000642e+01 0 0 0
9606 9606 2 0.0000000000000000e+00 -8.9881536362272083e+00 -1.0613993271980600e+01 -1.0867968104421365e+01 0 0 0
5772 5772 1 0.0000000000000000e+00 -1.1624781347226159e+01 -2.6257488725345195e+00 -6.5090633742156045e+00 1 0 0
10518 10518 2 0.0000000000000000e+00 -1.6882296748914392e+00 -6.6840829730568352e+00 -1.1551390773846899e+01 0 0 0
3866 3866 1 0.0000000000000000e+00 -7.3078598014461225e+00 -7.9866895662623767e+00 -1.1551705878378325e+01 0 0 1
887 887 1 0.0000000000000000e+00 -2.4818720565959018e+00 -9.6688624014794673e+00 -8.0347277946413147e+00 0 0 0
4170 4170 1 0.0000000000000000e+00 -5.7617425595509308e-01 -9.3435296601382394e+00 -9.1571270006320766e+00 0 0 0
12068 12068 2 0.0000000000000000e+00 -7.8907273714401178e+00 -8.0255210718485770e-01 -1.0811435131780350e+01 0 0 0
941 941 1 0.0000000000000000e+00 -3.1814840735827971e-01 -1.8879975747685198e+00 -8.3731767538683357e+00 0 0 0
4119 4119 1 0.0000000000000000e+00 -3.3452720714968218e+00 -7.9260878508035065e-02 -7.5235233079051014e+00 0 0 0
996 996 1 0.0000000000000000e+00 -1.0199566842022573e+01 -2.0422298222932116e+00 -1.0252832881671548e+01 0 0 0
1005 1005 1 0.0000000000000000e+00 -5.8720424349555644e+00 -7.3800804379695348e+00 -7.7944064770419299e+00 0 0 0
6271 6271 1 0.0000000000000000e+00 -9.0371834830736013e+00 -2.2741593471483754e+00 -1.0671858091813160e+01 0 0 0
1061 1061 1 0.0000000000000000e+00 -1.4343403694844690e+00 -8.5627145295897247e+00 -9.5869101971620498e+00 0 0 0
11547 11547 2 0.0000000000000000e+00 -1.1288766705972259e+01 -2.5341418961140647e+00 -1.0009045700075051e+01 1 0 0
5745 5745 1 0.0000000000000000e+00 -1.0284473846076093e+01 -1.2422474665457524e+00 -7.5707922531833240e+00 0 0 0
1082 1082 1 0.0000000000000000e+00 -6.3071170966271124e+00 -7.6206039550601972e+00 -8.9058306030252652e+00 0 0 0
9631 9631 2 0.0000000000000000e+00 -1.0593537277450611e+01 -2.2350144755956575e-01 -1.0809761642431429e+01 1 0 0
1127 1127 1 0.0000000000000000e+00 -6.1140560829277870e+00 -1.8221395082038239e-01 -7.3869794357784526e+00 0 0 0
2272 2272 1 0.0000000000000000e+00 -4.6053549185300300e+00 -8.6446214237317012e+00 -9.5713186736502998e+00 0 0 0
1136 1136 1 0.0000000000000000e+00 -1.0355187207771358e+01 -9.0808876499770825e+00 -9.9313690722448129e+00 0 0 0
9204 9204 2 0.0000000000000000e+00 -1.1576571987982451e+01 -7.4126466742443931e-01 -1.0701752267517586e+01 1 0 1
912 912 1 0.0000000000000000e+00 -2.2101758121837660e+00 -1.8180477498941465e-02 -1.1618094592030841e+01 0 0 0
12456 12456 2 0.0000000000000000e+00 -7.6867070428530111e+00 -1.0970967543675668e+01 -9.0976522464291278e+00 0 1 0
11453 11453 2 0.0000000000000000e+00 -8.3998933630772221e+00 -3.9957562266609681e-01 -1.0206941381094756e+01 0 0 0
1258 1258 1 0.0000000000000000e+00 -9.4477563362272008e+00 -7.0474838770672390e+00 -9.3153166755332730e+00 0 0 0
1271 1271 1 0.0000000000000000e+00 -4.1304132845712154e+00 -8.6823445270712103e+00 -7.5522798515642444e+00 0 0 0
13769 13769 2 0.0000000000000000e+00 -3.2657563155204952e+00 -2.0192921235943908e+00 -9.5460152690047639e+00 0 0 0
1253 1253 1 0.0000000000000000e+00 -1.1115418210182641e+01 -9.3603741091213859e+00 -8.1762504040322632e+00 0 0 0
6762 6762 1 0.0000000000000000e+00 -9.1782894184793431e+00 -1.1233932444835444e+01 -1.0236037811136715e+01 0 1 0
1325 1325 1 0.0000000000000000e+00 -9.6073697287204620e+00 -1.8786555302634778e+00 -7.7801659761397799e+00 0 0 0
1336 1336 1 0.0000000000000000e+00 -4.8796490901396501e+00 -5.8171396232153381e+00 -9.8737229192369149e+00 0 0 0
3214 3214 1 0.0000000000000000e+00 -7.5284153791525110e+00 -3.2582718917284339e+00 -1.1547605657001657e+01 0 0 0
6644 6644 1 0.0000000000000000e+00 -1.0822803541595221e+00 -1.1485642158924818e+00 -1.0370162769363684e+01 0 0 0
1459 1459 1 0.0000000000000000e+00 -2.1530655354945822e+00 -8.2116044767987422e+00 -8.9124923818905017e+00 0 0 0
6292 6292 1 0.0000000000000000e+00 -1.1815184011630198e-01 -3.4691947917391492e+00 -9.6852082448989716e+00 0 0 0
1507 1507 1 0.0000000000000000e+00 -3.1465805541666829e+00 -5.9010851958803556e+00 -8.8054997214356128e+00 0 0 0
1517 1517 1 0.0000000000000000e+00 -5.0901456336099526e+00 -7.0879691572163512e+00 -7.9500671579307118e+00 0 0 0
1551 1551 1 0.0000000000000000e+00 -1.6367928298556156e+00 -3.1906360409545611e+00 -9.5910133109215554e+00 0 0 0
216 216 1 0.0000000000000000e+00 -2.5351965446884348e+00 -9.5445949761322506e+00 -1.1031218010604940e+01 0 0 1
8745 8745 2 0.0000000000000000e+00 -8.7959133867274897e+00 -6.8030851801524701e+00 -1.1163985284438546e+01 0 0 1
1574 1574 1 0.0000000000000000e+00 -1.0453726934561367e+01 -7.7961447123893297e+00 -7.3214531939886252e+00 0 0 0
8160 8160 2 0.0000000000000000e+00 -9.6692865178217347e-01 -4.0696583060285949e+00 -1.0556900100209296e+01 0 0 0
1495 1495 1 0.0000000000000000e+00 -4.6375844355368336e+00 -1.4156120252884139e+00 -1.0706919372314587e+01 0 0 1
11645 11645 2 0.0000000000000000e+00 -1.5778396771499620e-01 -2.2613652449662762e+00 -1.0351522491180523e+01 0 0 0
5661 5661 1 0.0000000000000000e+00 -1.1195414321754381e+01 -9.0734821427936012e+00 -1.0690052004048958e+01 1 0 0
1664 1664 1 0.0000000000000000e+00 -1.0291137085972561e+01 -3.8334982659788337e+00 -6.8144587895238109e+00 0 0 0
1673 1673 1 0.0000000000000000e+00 -4.5463499164478209e+00 -2.1010253183907928e+00 -1.1461251776252682e+01 0 0 0
1675 1675 1 0.0000000000000000e+00 -6.2932464468062630e+00 -1.0900513043030086e+01 -1.0522426091479064e+01 0 0 0
7673 7673 2 0.0000000000000000e+00 -5.9697550521683587e+00 -5.3071886358996834e-01 -1.1065435784484571e+01 0 0 0
1714 1714 1 0.0000000000000000e+00 -1.0267495873793100e+01 -1.9039933283666786e+00 -9.4287279371300627e+00 0 0 0
9235 9235 2 0.0000000000000000e+00 -5.6811871334917932e+00 -6.5521549838664861e-01 -1.0177321826363679e+01 0 0 0
1725 1725 1 0.0000000000000000e+00 -2.4278309385513404e+00 -1.4511311869439891e+00 -8.9928485057192891e+00 0 0 0
1741 1741 1 0.0000000000000000e+00 -6.3476097269884448e+00 -5.3486294111836692e+00 -1.0510981853873018e+01 0 0 0
6698 6698 1 0.0000000000000000e+00 -1.6829433784569295e-01 -8.3702565877746604e+00 -1.0808213581027099e+01 0 1 0
1767 1767 1 0.0000000000000000e+00 -2.1280825507814236e+00 -6.9393083102536952e+00 -6.8586256069482507e+00 0 0 0
1811 1811 1 0.0000000000000000e+00 -7.6134107059623188e+00 -4.3835270560158390e+00 -6.5892016488526846e+00 0 0 0
1820 1820 1 0.0000000000000000e+00 -5.8189959140359160e-01 -7.2389064253439193e+00 -8.5737409206191337e+00 0 0 0
1830 1830 1 0.0000000000000000e+00 -5.8234237541600642e+00 -6.8520238139723899e+00 -8.7274971957495477e+00 0 0 0
1865 1865 1 0.0000000000000000e+00 -4.2218026900129013e+00 -7.5902290183264851e+00 -7.5708120360737698e+00 0 0 0
1917 1917 1 0.0000000000000000e+00 -6.8227182645317423e+00 -5.4640536665659747e+00 -8.4890396490929376e+00 0 0 0
2848 2848 1 0.0000000000000000e+00 -4.8659731806598161e-01 -1.0922884023358717e+01 -5.8806730231909476e+00 0 0 0
5014 5014 1 0.0000000000000000e+00 -4.5979475192481125e+00 -6.3612853253101020e-01 -1.1479395032468693e+01 0 0 0
1966 1966 1 0.0000000000000000e+00 -5.4115436701603743e+00 -1.0328558513022903e+01 -9.0019769742723081e+00 0 0 0
1637 1637 1 0.0000000000000000e+00 -1.7897931196068952e+00 -1.6979712557553097e+00 -6.7860169785488651e+00 0 0 0
7064 7064 2 0.0000000000000000e+00 -3.0114273087193517e+00 -5.7297170938486124e+00 -1.1622956924419473e+01 0 0 0
8664 8664 2 0.0000000000000000e+00 -3.0188363883617235e+00 -3.6393630819568784e-01 -6.2691427340904911e+00 0 0 0
10211 10211 2 0.0000000000000000e+00 -6.1385597078379410e+00 -1.0629461478152711e+01 -7.0593998761746208e+00 0 1 0
2047 2047 1 0.0000000000000000e+00 -7.1716552207226210e+00 -7.8095618129922535e+00 -9.4725562278320936e+00 0 0 0
7463 7463 2 0.0000000000000000e+00 -7.1423411254611926e+00 -3.5556413102721955e+00 -6.8484316324602261e+00 0 0 0
4321 4321 1 0.0000000000000000e+00 -8.9361529920100722e+00 -9.5891032741099593e+00 -1.0745405446605922e+01 0 0 1
13071 13071 2 0.0000000000000000e+00 -7.8317632857634489e-01 -5.7662740375540968e+00 -9.6415961922815949e+00 0 0 0
2100 2100 1 0.0000000000000000e+00 -5.9970475874028653e+00 -5.8762900853026272e+00 -8.8328418272576510e+00 0 0 0
2125 2125 1 0.0000000000000000e+00 -9.6438488624378955e+00 -6.5191411595198394e+00 -6.4858841146140502e+00 0 0 0
12070 12070 2 0.0000000000000000e+00 -8.1213846125536424e+00 -5.7943097771570766e+00 -6.8943257234740409e+00 0 0 0
2166 2166 1 0.0000000000000000e+00 -2.7979983853053696e+00 -1.8621316471917455e+00 -7.6485245130433732e+00 0 0 0
2168 2168 1 0.0000000000000000e+00 -8.5844161010721844e+00 -7.5580924581673576e+00 -8.6102531541118701e+00 0 0 0
2183 2183 1 0.0000000000000000e+00 -9.8417272542593555e+00 -4.1535428755387311e+00 -9.6767842035306462e+00 0 0 0
2198 2198 1 0.0000000000000000e+00 -8.4256014525704774e+00 -5.5334527313998096e+00 -8.0472917082048880e+00 0 0 0
2225 2225 1 0.0000000000000000e+00 -8.2976519073910637e-01 -3.2107045851386333e+00 -9.4595665789167658e+00 0 0 0
2239 2239 1 0.0000000000000000e+00 -9.5273494762777791e+00 -9.3853511153703799e+00 -9.8373723748733592e+00 0 0 0
2249 2249 1 0.0000000000000000e+00 -4.5831368620149187e+00 -1.1783931357950512e+00 -9.5512457835656068e+00 0 0 0
9305 9305 2 0.0000000000000000e+00 -1.0010089858361431e+01 -1.0782530050430799e+01 -7.6055128533468315e+00 0 1 0
7592 7592 2 0.0000000000000000e+00 -4.0077451304166987e+00 -3.6984288196611179e+00 -1.1603564500951640e+01 0 0 0
5002 5002 1 0.0000000000000000e+00 -1.7437995964486854e+00 -7.7074921080526304e-01 -9.5472013540020750e+00 0 0 0
2384 2384 1 0.0000000000000000e+00 -8.8546957319959230e+00 -8.6860123464932961e+00 -8.5076579328840243e+00 0 0 0
2419 2419 1 0.0000000000000000e+00 -1.0030175530844296e+01 -4.7248760608281337e+00 -7.4300744727917740e+00 0 0 0
2467 2467 1 0.0000000000000000e+00 -6.4174321804419723e+00 -5.5531921409743248e+00 -7.6858239751429354e+00 0 0 0
8349 8349 2 0.0000000000000000e+00 -8.5199520444770460e+00 -1.1384955259539934e+01 -7.0224989467944052e+00 0 0 0
11455 11455 2 0.0000000000000000e+00 -9.5437058718361953e+00 -1.2013438491602677e+00 -1.0415985815431121e+01 0 0 0
9064 9064 2 0.0000000000000000e+00 -1.0890343280266178e+01 -5.0313375208437190e+00 -7.2655706793051387e+00 1 0 0
2537 2537 1 0.0000000000000000e+00 -3.9219488123945019e+00 -7.2648611806355801e+00 -1.0944217126859526e+01 0 0 0
13648 13648 2 0.0000000000000000e+00 -5.1616889344930854e+00 -8.0248596243438914e+00 -1.1178984700679337e+01 0 0 0
7618 7618 2 0.0000000000000000e+00 -1.0824176173705116e+01 -4.1673885828554047e+00 -7.5161669832179463e+00 1 0 0
3340 3340 1 0.0000000000000000e+00 -1.0898883920327521e+01 -6.5163354023136835e+00 -9.4071806793311392e+00 0 0 0
2574 2574 1 0.0000000000000000e+00 -4.9362059110798864e+00 -9.3925642936246945e+00 -9.4316493310348974e+00 0 0 0
2602 2602 1 0.0000000000000000e+00 -2.9173670688685331e+00 -4.1438955416317036e+00 -7.0681589508951186e+00 0 0 0
10214 10214 2 0.0000000000000000e+00 -4.4974983901937042e+00 -9.8505715385781425e+00 -8.2292999924562338e+00 0 1 0
5764 5764 1 0.0000000000000000e+00 -5.7389891450361947e+00 -7.0890585664200749e+00 -1.0901364520061076e+01 0 0 0
2625 2625 1 0.0000000000000000e+00 -6.7528865289574584e+00 -9.0301585684565444e-01 -7.4872702096768586e+00 0 0 0
9682 9682 2 0.0000000000000000e+00 -5.1322947059738731e+00 -6.6418728931173829e+00 -9.5966693733022428e+00 0 0 1
2644 2644 1 0.0000000000000000e+00 -5.4710351559222286e+00 -5.3060669334848374e+00 -1.1129449283739568e+01 0 0 0
7544 7544 2 0.0000000000000000e+00 -7.7914936284765792e+00 -1.2296137970465573e+00 -1.1403648802129602e+01 0 0 1
2814 2814 1 0.0000000000000000e+00 -1.0899586976885365e+01 -6.3079605927727060e+00 -1.0560275684902669e+01 1 0 0
2689 2689 1 0.0000000000000000e+00 -7.9887908157891916e+00 -7.9222276066826005e+00 -7.2841577898474599e+00 0 0 0
11079 11079 2 0.0000000000000000e+00 -1.3090228676416238e-01 -5.5555042252298834e-02 -1.1325210995722712e+01 0 0 1
13647 13647 2 0.0000000000000000e+00 -9.2963118452199414e+00 -4.1680300597487213e-01 -1.0941957012683272e+01 0 0 0
2750 2750 1 0.0000000000000000e+00 -5.1618961937144352e+00 -4.1938687227793308e+00 -6.5930429460513027e+00 0 0 0
2783 2783 1 0.0000000000000000e+00 -3.3669362048775819e+00 -4.8676853437063965e+00 -9.0819613507215244e+00 0 0 0
2818 2818 1 0.0000000000000000e+00 -1.6129272411833551e+00 -5.8444955183710148e+00 -1.0243740119532184e+01 0 0 0
1453 1453 1 0.0000000000000000e+00 -8.7931625259813355e+00 -4.1136553374394780e-01 -7.6429721137830926e+00 0 0 0
6756 6756 1 0.0000000000000000e+00 -2.5049081150489302e-02 -7.0325280707537452e+00 -1.0344817907335708e+01 0 0 1
2852 2852 1 0.0000000000000000e+00 -4.0430996324061672e+00 -4.6248237069687805e+00 -8.5430414868281552e+00 0 0 0
2878 2878 1 0.0000000000000000e+00 -4.2070975523932361e+00 -2.8742997939274129e+00 -8.8506798995862823e+00 0 0 0
11948 11948 2 0.0000000000000000e+00 -3.5082094383590561e+00 -8.8924262378958918e+00 -1.1481440214800939e+01 0 0 0
2893 2893 1 0.0000000000000000e+00 -2.1698622238616991e+00 -5.1017455388858934e+00 -7.3394091456567567e+00 0 0 0
2916 2916 1 0.0000000000000000e+00 -4.8861883929019294e+00 -1.0453560376027527e+01 -9.8312728764949373e+00 0 0 0
2945 2945 1 0.0000000000000000e+00 -9.1318426847289089e+00 -4.4981805798724750e+00 -8.1986921022667438e+00 0 0 0
2946 2946 1 0.0000000000000000e+00 -9.6485780110871495e+00 -5.3041619016495902e+00 -1.0108891750980440e+01 0 0 0
2954 2954 1 0.0000000000000000e+00 -8.6983025140258174e+00 -9.3256826674188193e+00 -9.4333499898281019e+00 0 0 0
3218 3218 1 0.0000000000000000e+00 -1.1639183873386555e+01 -9.4532250113167340e+00 -9.6331729324853832e+00 1 0 1
3040 3040 1 0.0000000000000000e+00 -2.9915393829791190e+00 -7.9671603332675387e+00 -8.4883684957672649e+00 0 0 0
3078 3078 1 0.0000000000000000e+00 -1.9381270417604255e+00 -7.5844697395135521e+00 -1.0867421617527937e+01 0 0 0
7762 7762 2 0.0000000000000000e+00 -4.9801457139505800e-01 -1.0837907616803284e+01 -1.0086567954863213e+01 0 1 0
11249 11249 2 0.0000000000000000e+00 -7.2024869787203087e+00 -1.6669143224172114e+00 -1.0470644332872885e+01 0 0 1
9865 9865 2 0.0000000000000000e+00 -6.9984988464451003e+00 -5.7203187293772570e+00 -1.1504782957074099e+01 0 0 1
3152 3152 1 0.0000000000000000e+00 -6.6385799071026366e+00 -3.0566132550288412e+00 -8.5255504347898476e+00 0 0 0
3175 3175 1 0.0000000000000000e+00 -3.7072155948347851e+00 -2.5159654947778507e+00 -8.1250343894923187e+00 0 0 0
3178 3178 1 0.0000000000000000e+00 -7.2840600724601048e+00 -1.7054671502558043e+00 -7.3255710040664841e+00 0 0 0
7524 7524 2 0.0000000000000000e+00 -1.6347717322545701e+00 -1.0163334975931706e+01 -1.0840479033496621e+01 0 0 1
3196 3196 1 0.0000000000000000e+00 -3.7272870336074355e+00 -4.7341578684890306e+00 -6.7304716170877876e+00 0 0 0
3430 3430 1 0.0000000000000000e+00 -8.7840463968084386e+00 -1.0353145182850337e+01 -9.8849614454799113e+00 0 0 0
3248 3248 1 0.0000000000000000e+00 -3.9669255056560799e+00 -4.2262093507213176e+00 -7.4887098910230243e+00 0 0 0
11224 11224 2 0.0000000000000000e+00 -7.4614428439437317e+00 -1.0679008557637395e+01 -9.9189603314078507e+00 0 0 0
10955 10955 2 0.0000000000000000e+00 -6.6236896350791987e+00 -1.1208705933463396e+01 -1.1419410100564006e+01 0 1 0
8949 8949 2 0.0000000000000000e+00 -3.6095693078255553e+00 -2.3559644438146896e+00 -1.1266344546910947e+01 0 0 0
8387 8387 2 0.0000000000000000e+00 -8.9423873881603910e+00 -1.1355422638479642e+01 -7.8731756629071796e+00 0 0 0
13287 13287 2 0.0000000000000000e+00 -1.6838261088804474e+00 -7.7883122240300739e-01 -8.5131350472035940e+00 0 0 0
3355 3355 1 0.0000000000000000e+00 -1.7123870270911496e+00 -9.9631033477863475e+00 -7.3456334151587876e+00 0 0 0
3357 3357 1 0.0000000000000000e+00 -3.9477161104052652e+00 -5.5955231443821081e+00 -8.6310956653508892e+00 0 0 0
3361 3361 1 0.0000000000000000e+00 -4.7542574754542271e+00 -1.1139935665187220e+01 -9.0358040552349905e+00 0 0 0
3373 3373 1 0.0000000000000000e+00 -2.6423553355324119e+00 -3.2395176330002289e+00 -9.3615643696767936e+00 0 0 0
3384 3384 1 0.0000000000000000e+00 -5.3564555790703361e+00 -1.2396204017150596e+00 -9.1034859638800754e+00 0 0 0
857 857 1 0.0000000000000000e+00 -1.3247506742585751e+00 -4.9580819600820494e+00 -1.0188058504638917e+01 0 0 0
7386 7386 2 0.0000000000000000e+00 -8.3209441797378894e+00 -3.1097085358482599e+00 -1.0384679572254177e+01 1 0 0
3393 3393 1 0.0000000000000000e+00 -9.1136516031822605e+00 -1.3920636654499554e+00 -7.2403988090553408e+00 0 0 0
3397 3397 1 0.0000000000000000e+00 -8.9116749608603296e+00 -5.9640314859721482e+00 -9.4898499236571734e+00 0 0 0
7299 7299 2 0.0000000000000000e+00 -4.9921707669083606e+00 -1.9368037000738987e+00 -7.9077941921520010e+00 0 0 0
12973 12973 2 0.0000000000000000e+00 -6.6713061659893089e+00 -1.1323026743959595e+01 -7.6035121425206516e+00 0 0 0
3422 3422 1 0.0000000000000000e+00 -5.4618179328600913e+00 -1.3312290243828482e+00 -1.1326940856346004e+01 0 0 0
12333 12333 2 0.0000000000000000e+00 -9.8872665851499342e+00 -6.5962942109719860e+00 -1.0419388701465335e+01 0 0 1
3432 3432 1 0.0000000000000000e+00 -9.1489730922919996e+00 -1.0106165098820563e+01 -7.2145569392291851e+00 0 0 0
3433 3433 1 0.0000000000000000e+00 -8.7485828583680298e+00 -8.4049621637910228e+00 -7.6406063701260800e+00 0 0 0
2986 2986 1 0.0000000000000000e+00 -5.9750979535358806e-01 -1.0407593193281302e+00 -8.2510342543240789e+00 0 0 0
3481 3481 1 0.0000000000000000e+00 -1.2533338602833297e+00 -7.5324881161290369e+00 -9.3678959677873959e+00 0 0 0
3488 3488 1 0.0000000000000000e+00 -7.5016370125217269e-01 -2.2832604921837212e+00 -7.6863351105977316e+00 0 0 0
3520 3520 1 0.0000000000000000e+00 -3.4234371136832817e+00 -8.6541060003292380e-01 -7.1451187723073915e+00 0 0 0
3527 3527 1 0.0000000000000000e+00 -7.7838869947279656e+00 -6.1663537517650868e-01 -8.9702626952508382e+00 0 0 0
3558 3558 1 0.0000000000000000e+00 -2.1474180394462001e+00 -7.7636085678568802e+00 -9.9851717606508767e+00 0 0 0
3567 3567 1 0.0000000000000000e+00 -4.5288458425041140e+00 -5.2177149283029909e+00 -1.0441630093960672e+01 0 0 0
3568 3568 1 0.0000000000000000e+00 -1.6052952168627219e+00 -4.1046482878852339e+00 -7.6899343834854381e+00 0 0 0
1464 1464 1 0.0000000000000000e+00 -3.3676658631855799e-01 -1.1953851092012955e+00 -1.0605136217966916e+01 0 0 0
13616 13616 2 0.0000000000000000e+00 -7.7778916067310435e+00 -3.2217219987151724e-01 -6.4758280253757885e+00 0 0 0
13725 13725 2 0.0000000000000000e+00 -5.1152351476661293e+00 -1.0630026252765184e+01 -8.0151648990726105e+00 0 0 0
2631 2631 1 0.0000000000000000e+00 -4.5491178420166181e+00 -2.8934392624457321e+00 -1.1136474148563240e+01 0 0 0
3674 3674 1 0.0000000000000000e+00 -5.9681488087119234e+00 -5.8474238472864561e+00 -9.6391352064188496e+00 0 0 0
3708 3708 1 0.0000000000000000e+00 -8.0329496611869864e+00 -7.0458046106795535e+00 -1.0086579372124056e+01 0 0 0
12301 12301 2 0.0000000000000000e+00 -2.1457167617127770e+00 -6.2028176622592808e+00 -5.9514835512846256e+00 0 0 0
4831 4831 1 0.0000000000000000e+00 -1.7582796495203710e+00 -1.6576224465170837e+00 -1.0477297476897961e+01 0 0 1
3759 3759 1 0.0000000000000000e+00 -3.0982695237112057e+00 -8.8880930599725474e+00 -7.7056437817572370e+00 0 0 0
3767 3767 1 0.0000000000000000e+00 -6.0683898259418028e+00 -1.7060706375158012e+00 -1.0642028958192629e+01 0 0 0
10073 10073 2 0.0000000000000000e+00 -8.2553817733451336e+00 -1.2596457207193339e+00 -8.1112039039660484e+00 0 0 0
937 937 1 0.0000000000000000e+00 -1.0166411802433450e+01 -1.0363591732528883e-02 -8.9669739597917015e+00 0 0 0
48 48 1 0.0000000000000000e+00 -1.1174867423085400e+01 -6.1126494141501100e+00 -1.1317962525947930e+01 1 0 0
3843 3843 1 0.0000000000000000e+00 -1.0940840646827926e+01 -9.9841476460585916e+00 -7.1522295455789120e+00 0 0 0
3267 3267 1 0.0000000000000000e+00 -9.3700806109160055e+00 -4.2396900079537501e+00 -1.0481213169993312e+01 0 0 0
3953 3953 1 0.0000000000000000e+00 -5.3872996186456863e+00 -7.7085696511905528e+00 -9.0874094266812140e+00 0 0 0
9711 9711 2 0.0000000000000000e+00 -7.6352272242031418e+00 -6.2904093039168201e+00 -9.7752584313014470e+00 0 0 0
4028 4028 1 0.0000000000000000e+00 -1.4800714679424631e+00 -7.9932498055494596e+00 -8.1869262604150421e+00 0 0 0
13519 13519 2 0.0000000000000000e+00 -4.2937257963230008e-01 -1.5385145079185187e+00 -9.5241121601663874e+00 0 0 0
4060 4060 1 0.0000000000000000e+00 -8.8542824042050707e+00 -3.0008543179738050e+00 -8.2955335579328651e+00 0 0 0
4062 4062 1 0.0000000000000000e+00 -7.8289892592006716e+00 -7.4952892451132378e+00 -8.0493236918168574e+00 0 0 0
4089 4089 1 0.0000000000000000e+00 -2.6244707080228076e+00 -6.1728625363662406e+00 -6.8972402134568602e+00 0 0 0
4101 4101 1 0.0000000000000000e+00 -1.1351268159823977e+01 -4.2952585676011807e+00 -1.1413242906320491e+01 0 0 0
7728 7728 2 0.0000000000000000e+00 -4.6160314911665545e-01 -8.1232166977521363e+00 -9.9035603346172323e+00 0 0 0
4130 4130 1 0.0000000000000000e+00 -4.7663129946220710e+00 -4.9166451950423751e+00 -7.7266238005070909e+00 0 0 0
4155 4155 1 0.0000000000000000e+00 -4.0772992307871725e+00 -6.2007184434643170e+00 -9.4060520013625037e+00 0 0 0
4167 4167 1 0.0000000000000000e+00 -9.6723830662915145e+00 -9.4070674839125683e+00 -7.7957447709367580e+00 0 0 0
13078 13078 2 0.0000000000000000e+00 -1.6174757675833775e+00 -6.1294920445841472e-01 -7.6180471201935669e+00 0 0 0
4201 4201 1 0.0000000000000000e+00 -1.3437158807919891e+00 -3.5313935067746676e+00 -7.2489676819778968e+00 0 0 0
11561 11561 2 0.0000000000000000e+00 -1.5479716463178250e+00 -1.1483602613755920e+01 -6.7991877536913865e+00 0 1 0
8306 8306 2 0.0000000000000000e+00 -9.5439127868814406e+00 -9.8199762200228102e-01 -9.3144453048814047e+00 0 0 0
232 232 1 0.0000000000000000e+00 -7.1859079194285274e+00 -4.9194919015491951e+00 -5.9352340036367659e+00 0 0 0
4257 4257 1 0.0000000000000000e+00 -5.9220339861763387e+00 -1.0108007518584488e+01 -8.2936274447815705e+00 0 0 0
4269 4269 1 0.0000000000000000e+00 -2.0611318116923778e+00 -1.5766132564667086e+00 -9.7028267208131087e+00 0 0 0
4294 4294 1 0.0000000000000000e+00 -6.3794368240085291e+00 -8.9154244842600665e+00 -1.0992352844358638e+01 0 0 0
4304 4304 1 0.0000000000000000e+00 -6.3134252481116260e+00 -9.7763851178058605e+00 -1.0696154308100686e+01 0 0 0
7337 7337 2 0.0000000000000000e+00 -3.5446074527033100e+00 -1.1295907930985875e+01 -6.9708898951495541e+00 0 1 0
8587 8587 2 0.0000000000000000e+00 -6.8962594122033769e+00 -6.4087128607678476e+00 -1.0337793683851768e+01 0 0 1
4318 4318 1 0.0000000000000000e+00 -3.2078791532880282e+00 -8.4771025622206899e+00 -7.0168725269773109e+00 0 0 0
4319 4319 1 0.0000000000000000e+00 -8.9150248099141276e+00 -2.2666065393161623e+00 -7.5651231553998510e+00 0 0 0
4333 4333 1 0.0000000000000000e+00 -4.1236876092544703e+00 -5.3029922607678728e+00 -9.5256342750898835e+00 0 0 0
13652 13652 2 0.0000000000000000e+00 -1.0915719391954298e+01 -2.2278381584513092e+00 -7.6438530079079809e+00 1 0 0
4343 4343 1 0.0000000000000000e+00 -9.3603704699978394e+00 -5.2212209902579954e+00 -1.1021973091879415e+01 0 0 0
4345 4345 1 0.0000000000000000e+00 -8.3624941093721450e+00 -4.5917505617758820e+00 -7.3311833407284785e+00 0 0 0
8254 8254 2 0.0000000000000000e+00 -6.9262811441680530e+00 -4.0830907057945587e-01 -1.0127396215258543e+01 0 0 0
4354 4354 1 0.0000000000000000e+00 -4.8943086802550191e+00 -3.9562651807004281e+00 -7.4682649430640851e+00 0 0 0
4361 4361 1 0.0000000000000000e+00 -6.8730901219406837e+00 -8.8411379471634692e+00 -9.8709824836219298e+00 0 0 0